 Entering Gaussian System, Link 0=g16
 Input=co2_dz.com
 Output=co2_dz.log
 Initial command:
 /usr/local/g16/l1.exe "/home/turki/random_projects/basis_set/Gau-52664.inp" -scrdir="/home/turki/random_projects/basis_set/"
 Entering Link 1 = /usr/local/g16/l1.exe PID=     52665.
  
 Copyright (c) 1988-2017, Gaussian, Inc.  All Rights Reserved.
  
 This is part of the Gaussian(R) 16 program.  It is based on
 the Gaussian(R) 09 system (copyright 2009, Gaussian, Inc.),
 the Gaussian(R) 03 system (copyright 2003, Gaussian, Inc.),
 the Gaussian(R) 98 system (copyright 1998, Gaussian, Inc.),
 the Gaussian(R) 94 system (copyright 1995, Gaussian, Inc.),
 the Gaussian 92(TM) system (copyright 1992, Gaussian, Inc.),
 the Gaussian 90(TM) system (copyright 1990, Gaussian, Inc.),
 the Gaussian 88(TM) system (copyright 1988, Gaussian, Inc.),
 the Gaussian 86(TM) system (copyright 1986, Carnegie Mellon
 University), and the Gaussian 82(TM) system (copyright 1983,
 Carnegie Mellon University). Gaussian is a federally registered
 trademark of Gaussian, Inc.
  
 This software contains proprietary and confidential information,
 including trade secrets, belonging to Gaussian, Inc.
  
 This software is provided under written license and may be
 used, copied, transmitted, or stored only in accord with that
 written license.
  
 The following legend is applicable only to US Government
 contracts under FAR:
  
                    RESTRICTED RIGHTS LEGEND
  
 Use, reproduction and disclosure by the US Government is
 subject to restrictions as set forth in subparagraphs (a)
 and (c) of the Commercial Computer Software - Restricted
 Rights clause in FAR 52.227-19.
  
 Gaussian, Inc.
 340 Quinnipiac St., Bldg. 40, Wallingford CT 06492
  
  
 ---------------------------------------------------------------
 Warning -- This program may not be used in any manner that
 competes with the business of Gaussian, Inc. or will provide
 assistance to any competitor of Gaussian, Inc.  The licensee
 of this program is prohibited from giving any competitor of
 Gaussian, Inc. access to this program.  By using this program,
 the user acknowledges that Gaussian, Inc. is engaged in the
 business of creating and licensing software in the field of
 computational chemistry and represents and warrants to the
 licensee that it is not a competitor of Gaussian, Inc. and that
 it will not use this program in any manner prohibited above.
 ---------------------------------------------------------------
  

 Cite this work as:
 Gaussian 16, Revision B.01,
 M. J. Frisch, G. W. Trucks, H. B. Schlegel, G. E. Scuseria, 
 M. A. Robb, J. R. Cheeseman, G. Scalmani, V. Barone, 
 G. A. Petersson, H. Nakatsuji, X. Li, M. Caricato, A. V. Marenich, 
 J. Bloino, B. G. Janesko, R. Gomperts, B. Mennucci, H. P. Hratchian, 
 J. V. Ortiz, A. F. Izmaylov, J. L. Sonnenberg, D. Williams-Young, 
 F. Ding, F. Lipparini, F. Egidi, J. Goings, B. Peng, A. Petrone, 
 T. Henderson, D. Ranasinghe, V. G. Zakrzewski, J. Gao, N. Rega, 
 G. Zheng, W. Liang, M. Hada, M. Ehara, K. Toyota, R. Fukuda, 
 J. Hasegawa, M. Ishida, T. Nakajima, Y. Honda, O. Kitao, H. Nakai, 
 T. Vreven, K. Throssell, J. A. Montgomery, Jr., J. E. Peralta, 
 F. Ogliaro, M. J. Bearpark, J. J. Heyd, E. N. Brothers, K. N. Kudin, 
 V. N. Staroverov, T. A. Keith, R. Kobayashi, J. Normand, 
 K. Raghavachari, A. P. Rendell, J. C. Burant, S. S. Iyengar, 
 J. Tomasi, M. Cossi, J. M. Millam, M. Klene, C. Adamo, R. Cammi, 
 J. W. Ochterski, R. L. Martin, K. Morokuma, O. Farkas, 
 J. B. Foresman, and D. J. Fox, Gaussian, Inc., Wallingford CT, 2016.
 
 ******************************************
 Gaussian 16:  ES64L-G16RevB.01 20-Dec-2017
                 8-Apr-2021 
 ******************************************
 %mem=24GB
 %nprocshared=12
 Will use up to   12 processors via shared memory.
 ------------------------------------------
 # opt freq b3lyp/CC-PVDZ geom=connectivity
 ------------------------------------------
 1/18=20,19=15,26=3,38=1,57=2/1,3;
 2/9=110,12=2,17=6,18=5,40=1/2;
 3/5=16,11=2,25=1,30=1,71=1,74=-5/1,2,3;
 4//1;
 5/5=2,38=5/2;
 6/7=2,8=2,9=2,10=2,28=1/1;
 7//1,2,3,16;
 1/18=20,19=15,26=3/3(2);
 2/9=110/2;
 99//99;
 2/9=110/2;
 3/5=16,11=2,25=1,30=1,71=1,74=-5/1,2,3;
 4/5=5,16=3,69=1/1;
 5/5=2,38=5/2;
 7//1,2,3,16;
 1/18=20,19=15,26=3/3(-5);
 2/9=110/2;
 6/7=2,8=2,9=2,10=2,19=2,28=1/1;
 99/9=1/99;
 -------------------
 Title Card Required
 -------------------
 Symbolic Z-matrix:
 Charge =  0 Multiplicity = 1
 C                    -3.37282   0.78026   0. 
 O                    -2.2962    0.12876   0. 
 O                    -4.44944   1.43176   0. 
 

 GradGradGradGradGradGradGradGradGradGradGradGradGradGradGradGradGradGrad
 Berny optimization.
 Initialization pass.
                           ----------------------------
                           !    Initial Parameters    !
                           ! (Angstroms and Degrees)  !
 --------------------------                            --------------------------
 ! Name  Definition              Value          Derivative Info.                !
 --------------------------------------------------------------------------------
 ! R1    R(1,2)                  1.2584         estimate D2E/DX2                !
 ! R2    R(1,3)                  1.2584         estimate D2E/DX2                !
 ! A1    L(2,1,3,-3,-1)        179.9999         estimate D2E/DX2                !
 ! A2    L(2,1,3,-2,-2)        180.0            estimate D2E/DX2                !
 --------------------------------------------------------------------------------
 Trust Radius=3.00D-01 FncErr=1.00D-07 GrdErr=1.00D-06 EigMax=2.50D+02 EigMin=1.00D-04
 Number of steps in this run=     20 maximum allowed number of steps=    100.
 GradGradGradGradGradGradGradGradGradGradGradGradGradGradGradGradGradGrad

                          Input orientation:                          
 ---------------------------------------------------------------------
 Center     Atomic      Atomic             Coordinates (Angstroms)
 Number     Number       Type             X           Y           Z
 ---------------------------------------------------------------------
      1          6           0       -3.372822    0.780261    0.000000
      2          8           0       -2.296201    0.128756    0.000000
      3          8           0       -4.449445    1.431763    0.000000
 ---------------------------------------------------------------------
                    Distance matrix (angstroms):
                    1          2          3
     1  C    0.000000
     2  O    1.258400   0.000000
     3  O    1.258400   2.516800   0.000000
 Stoichiometry    CO2
 Framework group  D*H[C*(O.O),X(C)]
 NumDoF:  Unrecognized symmetric subspace, IChar="X   "
 Deg. of freedom    -1
 Full point group                         NOp   0
 Largest Abelian subgroup         D2H     NOp   8
 Largest concise Abelian subgroup C2      NOp   2
                         Standard orientation:                         
 ---------------------------------------------------------------------
 Center     Atomic      Atomic             Coordinates (Angstroms)
 Number     Number       Type             X           Y           Z
 ---------------------------------------------------------------------
      1          6           0       -0.000000    0.000000   -0.000000
      2          8           0       -0.000000   -0.000000    1.258400
      3          8           0        0.000000   -0.000000   -1.258400
 ---------------------------------------------------------------------
 Rotational constants (GHZ):           0.0000000           9.9762623           9.9762623
 Standard basis: CC-pVDZ (5D, 7F)
 There are    14 symmetry adapted cartesian basis functions of AG  symmetry.
 There are     2 symmetry adapted cartesian basis functions of B1G symmetry.
 There are     4 symmetry adapted cartesian basis functions of B2G symmetry.
 There are     4 symmetry adapted cartesian basis functions of B3G symmetry.
 There are     1 symmetry adapted cartesian basis functions of AU  symmetry.
 There are    10 symmetry adapted cartesian basis functions of B1U symmetry.
 There are     5 symmetry adapted cartesian basis functions of B2U symmetry.
 There are     5 symmetry adapted cartesian basis functions of B3U symmetry.
 There are    12 symmetry adapted basis functions of AG  symmetry.
 There are     2 symmetry adapted basis functions of B1G symmetry.
 There are     4 symmetry adapted basis functions of B2G symmetry.
 There are     4 symmetry adapted basis functions of B3G symmetry.
 There are     1 symmetry adapted basis functions of AU  symmetry.
 There are     9 symmetry adapted basis functions of B1U symmetry.
 There are     5 symmetry adapted basis functions of B2U symmetry.
 There are     5 symmetry adapted basis functions of B3U symmetry.
    42 basis functions,    99 primitive gaussians,    45 cartesian basis functions
    11 alpha electrons       11 beta electrons
       nuclear repulsion energy        53.8260354292 Hartrees.
 NAtoms=    3 NActive=    3 NUniq=    2 SFac= 2.25D+00 NAtFMM=   60 NAOKFM=F Big=F
 Integral buffers will be    131072 words long.
 Raffenetti 2 integral format.
 Two-electron integral symmetry is turned on.
 One-electron integrals computed using PRISM.
 NBasis=    42 RedAO= T EigKep=  1.91D-02  NBF=    12     2     4     4     1     9     5     5
 NBsUse=    42 1.00D-06 EigRej= -1.00D+00 NBFU=    12     2     4     4     1     9     5     5
 ExpMin= 1.52D-01 ExpMax= 1.17D+04 ExpMxC= 4.01D+02 IAcc=3 IRadAn=         5 AccDes= 0.00D+00
 Harris functional with IExCor=  402 and IRadAn=       5 diagonalized for initial guess.
 HarFok:  IExCor=  402 AccDes= 0.00D+00 IRadAn=         5 IDoV= 1 UseB2=F ITyADJ=14
 ICtDFT=  3500011 ScaDFX=  1.000000  1.000000  1.000000  1.000000
 FoFCou: FMM=F IPFlag=           0 FMFlag=      100000 FMFlg1=           0
         NFxFlg=           0 DoJE=T BraDBF=F KetDBF=T FulRan=T
         wScrn=  0.000000 ICntrl=       500 IOpCl=  0 I1Cent=   200000004 NGrid=           0
         NMat0=    1 NMatS0=      1 NMatT0=    0 NMatD0=    1 NMtDS0=    0 NMtDT0=    0
 Petite list used in FoFCou.
 Initial guess orbital symmetries:
       Occupied  (SGU) (SGG) (SGG) (SGG) (SGU) (SGG) (SGU) (PIU)
                 (PIU) (PIG) (PIG)
       Virtual   (PIU) (PIU) (SGG) (SGU) (PIU) (PIU) (SGG) (SGU)
                 (SGG) (PIG) (PIG) (SGU) (PIU) (PIU) (DLTG) (DLTG)
                 (PIG) (PIG) (SGG) (SGU) (SGG) (DLTU) (DLTU) (DLTG)
                 (DLTG) (PIU) (PIU) (PIG) (PIG) (SGU) (SGG)
 The electronic state of the initial guess is 1-SGG.
 Keep R1 ints in memory in symmetry-blocked form, NReq=10835788.
 Requested convergence on RMS density matrix=1.00D-08 within 128 cycles.
 Requested convergence on MAX density matrix=1.00D-06.
 Requested convergence on             energy=1.00D-06.
 No special actions if energy rises.
 Integral accuracy reduced to 1.0D-05 until final iterations.
 Initial convergence to 1.0D-05 achieved.  Increase integral accuracy.
 SCF Done:  E(RB3LYP) =  -188.571444288     A.U. after   11 cycles
            NFock= 11  Conv=0.18D-09     -V/T= 2.0092

 **********************************************************************

            Population analysis using the SCF Density.

 **********************************************************************

 Orbital symmetries:
       Occupied  (SGU) (SGG) (SGG) (SGG) (SGU) (SGG) (SGU) (PIU)
                 (PIU) (PIG) (PIG)
       Virtual   (PIU) (PIU) (SGG) (SGU) (PIU) (PIU) (SGG) (SGU)
                 (SGG) (PIG) (PIG) (SGU) (DLTG) (DLTG) (PIU) (PIU)
                 (PIG) (PIG) (SGG) (SGU) (SGG) (DLTU) (DLTU) (DLTG)
                 (DLTG) (PIU) (PIU) (PIG) (PIG) (SGU) (SGG)
 The electronic state is 1-SGG.
 Alpha  occ. eigenvalues --  -19.24245 -19.24242 -10.40913  -1.12006  -1.08084
 Alpha  occ. eigenvalues --   -0.57732  -0.51276  -0.48384  -0.48384  -0.36552
 Alpha  occ. eigenvalues --   -0.36552
 Alpha virt. eigenvalues --   -0.02483  -0.02483   0.03020   0.34094   0.42434
 Alpha virt. eigenvalues --    0.42434   0.49603   0.62496   0.82690   0.87966
 Alpha virt. eigenvalues --    0.87966   0.96734   1.04658   1.04658   1.06278
 Alpha virt. eigenvalues --    1.06278   1.20879   1.20879   1.55311   2.05162
 Alpha virt. eigenvalues --    2.37557   2.52629   2.52629   2.60640   2.60640
 Alpha virt. eigenvalues --    2.65350   2.65350   3.28648   3.28648   3.30258
 Alpha virt. eigenvalues --    3.35102
          Condensed to atoms (all electrons):
               1          2          3
     1  C    4.346322   0.653403   0.653403
     2  O    0.653403   7.545315  -0.025281
     3  O    0.653403  -0.025281   7.545315
 Mulliken charges:
               1
     1  C    0.346873
     2  O   -0.173436
     3  O   -0.173436
 Sum of Mulliken charges =  -0.00000
 Mulliken charges with hydrogens summed into heavy atoms:
               1
     1  C    0.346873
     2  O   -0.173436
     3  O   -0.173436
 Electronic spatial extent (au):  <R**2>=            126.6908
 Charge=              0.0000 electrons
 Dipole moment (field-independent basis, Debye):
    X=             -0.0000    Y=              0.0000    Z=             -0.0000  Tot=              0.0000
 Quadrupole moment (field-independent basis, Debye-Ang):
   XX=            -14.8656   YY=            -14.8656   ZZ=            -18.9729
   XY=              0.0000   XZ=              0.0000   YZ=             -0.0000
 Traceless Quadrupole moment (field-independent basis, Debye-Ang):
   XX=              1.3691   YY=              1.3691   ZZ=             -2.7382
   XY=              0.0000   XZ=              0.0000   YZ=             -0.0000
 Octapole moment (field-independent basis, Debye-Ang**2):
  XXX=             -0.0000  YYY=              0.0000  ZZZ=             -0.0000  XYY=             -0.0000
  XXY=              0.0000  XXZ=             -0.0000  XZZ=             -0.0000  YZZ=              0.0000
  YYZ=             -0.0000  XYZ=             -0.0000
 Hexadecapole moment (field-independent basis, Debye-Ang**3):
 XXXX=            -11.1644 YYYY=            -11.1644 ZZZZ=           -112.6802 XXXY=              0.0000
 XXXZ=              0.0000 YYYX=              0.0000 YYYZ=             -0.0000 ZZZX=              0.0000
 ZZZY=             -0.0000 XXYY=             -3.7215 XXZZ=            -20.3270 YYZZ=            -20.3270
 XXYZ=             -0.0000 YYXZ=              0.0000 ZZXY=              0.0000
 N-N= 5.382603542921D+01 E-N=-5.508701830804D+02  KE= 1.868613625387D+02
 Symmetry AG   KE= 1.009008310037D+02
 Symmetry B1G  KE= 1.700304214678D-31
 Symmetry B2G  KE= 4.877188958229D+00
 Symmetry B3G  KE= 4.877188958229D+00
 Symmetry AU   KE= 1.324590214307D-31
 Symmetry B1U  KE= 6.901428161141D+01
 Symmetry B2U  KE= 3.595936003546D+00
 Symmetry B3U  KE= 3.595936003546D+00
 Calling FoFJK, ICntrl=      2127 FMM=F ISym2X=1 I1Cent= 0 IOpClX= 0 NMat=1 NMatS=1 NMatT=0.
 ***** Axes restored to original set *****
 -------------------------------------------------------------------
 Center     Atomic                   Forces (Hartrees/Bohr)
 Number     Number              X              Y              Z
 -------------------------------------------------------------------
      1        6          -0.000000000    0.000000000   -0.000000000
      2        8          -0.120899700    0.073160843   -0.000000000
      3        8           0.120899700   -0.073160843    0.000000000
 -------------------------------------------------------------------
 Cartesian Forces:  Max     0.120899700 RMS     0.066615391

 GradGradGradGradGradGradGradGradGradGradGradGradGradGradGradGradGradGrad
 Berny optimization.
 FormGI is forming the generalized inverse of G from B-inverse, IUseBI=4.
 Internal  Forces:  Max     0.141312584 RMS     0.099923087
 Search for a local minimum.
 Step number   1 out of a maximum of   20
 All quantities printed in internal units (Hartrees-Bohrs-Radians)
 Mixed Optimization -- RFO/linear search
 Second derivative matrix not updated -- first step.
 The second derivative matrix:
                          R1        R2        A1        A2
           R1           0.80209
           R2           0.00000   0.80209
           A1           0.00000   0.00000   0.03565
           A2           0.00000   0.00000   0.00000   0.03565
 ITU=  0
     Eigenvalues ---    0.03565   0.03565   0.80209   0.80209
 RFO step:  Lambda=-4.70349995D-02 EMin= 3.56487692D-02
 Linear search not attempted -- first point.
 Iteration  1 RMS(Cart)=  0.11767801 RMS(Int)=  0.00000000
 Iteration  2 RMS(Cart)=  0.00000000 RMS(Int)=  0.00000000
 ClnCor:  largest displacement from symmetrization is 1.36D-12 for atom     1.
 Variable       Old X    -DE/DX   Delta X   Delta X   Delta X     New X
                                 (Linear)    (Quad)   (Total)
    R1        2.37803  -0.14131   0.00000  -0.16642  -0.16642   2.21161
    R2        2.37803  -0.14131   0.00000  -0.16642  -0.16642   2.21161
    A1        3.14159   0.00000   0.00000   0.00000   0.00000   3.14159
    A2        3.14159  -0.00000   0.00000  -0.00000   0.00000   3.14159
         Item               Value     Threshold  Converged?
 Maximum Force            0.141313     0.000450     NO 
 RMS     Force            0.099923     0.000300     NO 
 Maximum Displacement     0.142382     0.001800     NO 
 RMS     Displacement     0.117678     0.001200     NO 
 Predicted change in Energy=-2.482019D-02
 GradGradGradGradGradGradGradGradGradGradGradGradGradGradGradGradGradGrad

                          Input orientation:                          
 ---------------------------------------------------------------------
 Center     Atomic      Atomic             Coordinates (Angstroms)
 Number     Number       Type             X           Y           Z
 ---------------------------------------------------------------------
      1          6           0       -3.372823    0.780260   -0.000000
      2          8           0       -2.371546    0.174351    0.000000
      3          8           0       -4.374099    1.386169   -0.000000
 ---------------------------------------------------------------------
                    Distance matrix (angstroms):
                    1          2          3
     1  C    0.000000
     2  O    1.170333   0.000000
     3  O    1.170333   2.340667   0.000000
 Stoichiometry    CO2
 Framework group  D*H[O(C),C*(O.O)]
 Deg. of freedom     1
 Full point group                 D*H     NOp   8
 Omega: Change in point group or standard orientation.

 Old FWG=D*H  [C*(O1.O1),X(C1)]
 New FWG=D*H  [O(C1),C*(O1.O1)]
 Largest Abelian subgroup         D2H     NOp   8
 Largest concise Abelian subgroup C2      NOp   2
                         Standard orientation:                         
 ---------------------------------------------------------------------
 Center     Atomic      Atomic             Coordinates (Angstroms)
 Number     Number       Type             X           Y           Z
 ---------------------------------------------------------------------
      1          6           0        0.000000    0.000000    0.000000
      2          8           0        0.000000   -0.000000    1.170333
      3          8           0       -0.000000   -0.000000   -1.170333
 ---------------------------------------------------------------------
 Rotational constants (GHZ):           0.0000000          11.5341637          11.5341637
 Standard basis: CC-pVDZ (5D, 7F)
 There are    14 symmetry adapted cartesian basis functions of AG  symmetry.
 There are     2 symmetry adapted cartesian basis functions of B1G symmetry.
 There are     4 symmetry adapted cartesian basis functions of B2G symmetry.
 There are     4 symmetry adapted cartesian basis functions of B3G symmetry.
 There are     1 symmetry adapted cartesian basis functions of AU  symmetry.
 There are    10 symmetry adapted cartesian basis functions of B1U symmetry.
 There are     5 symmetry adapted cartesian basis functions of B2U symmetry.
 There are     5 symmetry adapted cartesian basis functions of B3U symmetry.
 There are    12 symmetry adapted basis functions of AG  symmetry.
 There are     2 symmetry adapted basis functions of B1G symmetry.
 There are     4 symmetry adapted basis functions of B2G symmetry.
 There are     4 symmetry adapted basis functions of B3G symmetry.
 There are     1 symmetry adapted basis functions of AU  symmetry.
 There are     9 symmetry adapted basis functions of B1U symmetry.
 There are     5 symmetry adapted basis functions of B2U symmetry.
 There are     5 symmetry adapted basis functions of B3U symmetry.
    42 basis functions,    99 primitive gaussians,    45 cartesian basis functions
    11 alpha electrons       11 beta electrons
       nuclear repulsion energy        57.8764014160 Hartrees.
 NAtoms=    3 NActive=    3 NUniq=    2 SFac= 2.25D+00 NAtFMM=   60 NAOKFM=F Big=F
 Integral buffers will be    131072 words long.
 Raffenetti 2 integral format.
 Two-electron integral symmetry is turned on.
 One-electron integrals computed using PRISM.
 NBasis=    42 RedAO= T EigKep=  1.80D-02  NBF=    12     2     4     4     1     9     5     5
 NBsUse=    42 1.00D-06 EigRej= -1.00D+00 NBFU=    12     2     4     4     1     9     5     5
 Initial guess from the checkpoint file:  "/home/turki/random_projects/basis_set/Gau-52665.chk"
 B after Tr=    -0.000000    0.000000   -0.000000
         Rot=    1.000000    0.000000   -0.000000   -0.000000 Ang=   0.00 deg.
 Initial guess orbital symmetries:
       Occupied  (SGU) (SGG) (SGG) (SGG) (SGU) (SGG) (SGU) (PIU)
                 (PIU) (PIG) (PIG)
       Virtual   (PIU) (PIU) (SGG) (SGU) (PIU) (PIU) (SGG) (SGU)
                 (SGG) (PIG) (PIG) (SGU) (DLTG) (DLTG) (PIU) (PIU)
                 (PIG) (PIG) (SGG) (SGU) (SGG) (DLTU) (DLTU) (DLTG)
                 (DLTG) (PIU) (PIU) (PIG) (PIG) (SGU) (SGG)
 ExpMin= 1.52D-01 ExpMax= 1.17D+04 ExpMxC= 4.01D+02 IAcc=3 IRadAn=         5 AccDes= 0.00D+00
 Harris functional with IExCor=  402 and IRadAn=       5 diagonalized for initial guess.
 HarFok:  IExCor=  402 AccDes= 0.00D+00 IRadAn=         5 IDoV= 1 UseB2=F ITyADJ=14
 ICtDFT=  3500011 ScaDFX=  1.000000  1.000000  1.000000  1.000000
 FoFCou: FMM=F IPFlag=           0 FMFlag=      100000 FMFlg1=           0
         NFxFlg=           0 DoJE=T BraDBF=F KetDBF=T FulRan=T
         wScrn=  0.000000 ICntrl=       500 IOpCl=  0 I1Cent=   200000004 NGrid=           0
         NMat0=    1 NMatS0=      1 NMatT0=    0 NMatD0=    1 NMtDS0=    0 NMtDT0=    0
 Petite list used in FoFCou.
 Keep R1 ints in memory in symmetry-blocked form, NReq=10835788.
 Requested convergence on RMS density matrix=1.00D-08 within 128 cycles.
 Requested convergence on MAX density matrix=1.00D-06.
 Requested convergence on             energy=1.00D-06.
 No special actions if energy rises.
 Integral accuracy reduced to 1.0D-05 until final iterations.
 Initial convergence to 1.0D-05 achieved.  Increase integral accuracy.
 SCF Done:  E(RB3LYP) =  -188.598432803     A.U. after   10 cycles
            NFock= 10  Conv=0.10D-08     -V/T= 2.0059
 Calling FoFJK, ICntrl=      2127 FMM=F ISym2X=1 I1Cent= 0 IOpClX= 0 NMat=1 NMatS=1 NMatT=0.
 ***** Axes restored to original set *****
 -------------------------------------------------------------------
 Center     Atomic                   Forces (Hartrees/Bohr)
 Number     Number              X              Y              Z
 -------------------------------------------------------------------
      1        6           0.000000000   -0.000000000   -0.000000000
      2        8          -0.005277335    0.003193509    0.000000000
      3        8           0.005277335   -0.003193509    0.000000000
 -------------------------------------------------------------------
 Cartesian Forces:  Max     0.005277335 RMS     0.002907796

 GradGradGradGradGradGradGradGradGradGradGradGradGradGradGradGradGradGrad
 Berny optimization.
 Using GEDIIS/GDIIS optimizer.
 Internal  Forces:  Max     0.006168368 RMS     0.004361695
 Search for a local minimum.
 Step number   2 out of a maximum of   20
 All quantities printed in internal units (Hartrees-Bohrs-Radians)
 Mixed Optimization -- RFO/linear search
 Update second derivatives using D2CorX and points    1    2
 DE= -2.70D-02 DEPred=-2.48D-02 R= 1.09D+00
 TightC=F SS=  1.41D+00  RLast= 2.35D-01 DXNew= 5.0454D-01 7.0607D-01
 Trust test= 1.09D+00 RLast= 2.35D-01 DXMaxT set to 5.05D-01
 The second derivative matrix:
                          R1        R2        A1        A2
           R1           0.80707
           R2           0.00499   0.80707
           A1           0.00000   0.00000   0.03565
           A2           0.00000   0.00000   0.00000   0.03565
 ITU=  1  0
 Use linear search instead of GDIIS.
     Eigenvalues ---    0.03565   0.03565   0.80209   0.81206
 RFO step:  Lambda= 0.00000000D+00 EMin= 3.56487692D-02
 Quartic linear search produced a step of  0.03364.
 Iteration  1 RMS(Cart)=  0.00395884 RMS(Int)=  0.00000001
 Iteration  2 RMS(Cart)=  0.00000001 RMS(Int)=  0.00000000
 ClnCor:  largest displacement from symmetrization is 1.04D-08 for atom     1.
 Variable       Old X    -DE/DX   Delta X   Delta X   Delta X     New X
                                 (Linear)    (Quad)   (Total)
    R1        2.21161  -0.00617  -0.00560  -0.00000  -0.00560   2.20601
    R2        2.21161  -0.00617  -0.00560   0.00000  -0.00560   2.20601
    A1        3.14159   0.00000   0.00000  -0.00000   0.00000   3.14159
    A2        3.14159  -0.00000   0.00000  -0.00000   0.00000   3.14159
         Item               Value     Threshold  Converged?
 Maximum Force            0.006168     0.000450     NO 
 RMS     Force            0.004362     0.000300     NO 
 Maximum Displacement     0.004790     0.001800     NO 
 RMS     Displacement     0.003959     0.001200     NO 
 Predicted change in Energy=-4.361516D-05
 GradGradGradGradGradGradGradGradGradGradGradGradGradGradGradGradGradGrad

                          Input orientation:                          
 ---------------------------------------------------------------------
 Center     Atomic      Atomic             Coordinates (Angstroms)
 Number     Number       Type             X           Y           Z
 ---------------------------------------------------------------------
      1          6           0       -3.372823    0.780260   -0.000000
      2          8           0       -2.374081    0.175885    0.000000
      3          8           0       -4.371564    1.384635   -0.000000
 ---------------------------------------------------------------------
                    Distance matrix (angstroms):
                    1          2          3
     1  C    0.000000
     2  O    1.167371   0.000000
     3  O    1.167371   2.334741   0.000000
 Stoichiometry    CO2
 Framework group  D*H[O(C),C*(O.O)]
 Deg. of freedom     1
 Full point group                 D*H     NOp   8
 Largest Abelian subgroup         D2H     NOp   8
 Largest concise Abelian subgroup C2      NOp   2
                         Standard orientation:                         
 ---------------------------------------------------------------------
 Center     Atomic      Atomic             Coordinates (Angstroms)
 Number     Number       Type             X           Y           Z
 ---------------------------------------------------------------------
      1          6           0        0.000000    0.000000    0.000000
      2          8           0       -0.000000    0.000000    1.167371
      3          8           0       -0.000000    0.000000   -1.167371
 ---------------------------------------------------------------------
 Rotational constants (GHZ):           0.0000000          11.5927832          11.5927832
 Standard basis: CC-pVDZ (5D, 7F)
 There are    14 symmetry adapted cartesian basis functions of AG  symmetry.
 There are     2 symmetry adapted cartesian basis functions of B1G symmetry.
 There are     4 symmetry adapted cartesian basis functions of B2G symmetry.
 There are     4 symmetry adapted cartesian basis functions of B3G symmetry.
 There are     1 symmetry adapted cartesian basis functions of AU  symmetry.
 There are    10 symmetry adapted cartesian basis functions of B1U symmetry.
 There are     5 symmetry adapted cartesian basis functions of B2U symmetry.
 There are     5 symmetry adapted cartesian basis functions of B3U symmetry.
 There are    12 symmetry adapted basis functions of AG  symmetry.
 There are     2 symmetry adapted basis functions of B1G symmetry.
 There are     4 symmetry adapted basis functions of B2G symmetry.
 There are     4 symmetry adapted basis functions of B3G symmetry.
 There are     1 symmetry adapted basis functions of AU  symmetry.
 There are     9 symmetry adapted basis functions of B1U symmetry.
 There are     5 symmetry adapted basis functions of B2U symmetry.
 There are     5 symmetry adapted basis functions of B3U symmetry.
    42 basis functions,    99 primitive gaussians,    45 cartesian basis functions
    11 alpha electrons       11 beta electrons
       nuclear repulsion energy        58.0232860293 Hartrees.
 NAtoms=    3 NActive=    3 NUniq=    2 SFac= 2.25D+00 NAtFMM=   60 NAOKFM=F Big=F
 Integral buffers will be    131072 words long.
 Raffenetti 2 integral format.
 Two-electron integral symmetry is turned on.
 One-electron integrals computed using PRISM.
 NBasis=    42 RedAO= T EigKep=  1.80D-02  NBF=    12     2     4     4     1     9     5     5
 NBsUse=    42 1.00D-06 EigRej= -1.00D+00 NBFU=    12     2     4     4     1     9     5     5
 Initial guess from the checkpoint file:  "/home/turki/random_projects/basis_set/Gau-52665.chk"
 B after Tr=     0.000000    0.000000    0.000000
         Rot=    1.000000   -0.000000   -0.000000    0.000000 Ang=   0.00 deg.
 Initial guess orbital symmetries:
       Occupied  (SGU) (SGG) (SGG) (SGG) (SGU) (SGG) (SGU) (PIU)
                 (PIU) (PIG) (PIG)
       Virtual   (PIU) (PIU) (SGG) (SGU) (PIU) (PIU) (SGG) (SGU)
                 (SGG) (PIG) (PIG) (DLTG) (DLTG) (SGU) (PIU) (PIU)
                 (PIG) (PIG) (SGG) (SGU) (DLTU) (DLTU) (DLTG) (DLTG)
                 (SGG) (PIU) (PIU) (SGG) (PIG) (PIG) (SGU)
 Keep R1 ints in memory in symmetry-blocked form, NReq=10835788.
 Requested convergence on RMS density matrix=1.00D-08 within 128 cycles.
 Requested convergence on MAX density matrix=1.00D-06.
 Requested convergence on             energy=1.00D-06.
 No special actions if energy rises.
 SCF Done:  E(RB3LYP) =  -188.598467133     A.U. after    7 cycles
            NFock=  7  Conv=0.10D-08     -V/T= 2.0058
 Calling FoFJK, ICntrl=      2127 FMM=F ISym2X=1 I1Cent= 0 IOpClX= 0 NMat=1 NMatS=1 NMatT=0.
 ***** Axes restored to original set *****
 -------------------------------------------------------------------
 Center     Atomic                   Forces (Hartrees/Bohr)
 Number     Number              X              Y              Z
 -------------------------------------------------------------------
      1        6          -0.000000000    0.000000000    0.000000000
      2        8           0.000049703   -0.000030077   -0.000000000
      3        8          -0.000049703    0.000030077   -0.000000000
 -------------------------------------------------------------------
 Cartesian Forces:  Max     0.000049703 RMS     0.000027386

 GradGradGradGradGradGradGradGradGradGradGradGradGradGradGradGradGradGrad
 Berny optimization.
 Using GEDIIS/GDIIS optimizer.
 Internal  Forces:  Max     0.000058095 RMS     0.000041079
 Search for a local minimum.
 Step number   3 out of a maximum of   20
 All quantities printed in internal units (Hartrees-Bohrs-Radians)
 Mixed Optimization -- En-DIIS/RFO-DIIS
 Update second derivatives using D2CorX and points    1    2    3
 DE= -3.43D-05 DEPred=-4.36D-05 R= 7.87D-01
 TightC=F SS=  1.41D+00  RLast= 7.92D-03 DXNew= 8.4853D-01 2.3753D-02
 Trust test= 7.87D-01 RLast= 7.92D-03 DXMaxT set to 5.05D-01
 The second derivative matrix:
                          R1        R2        A1        A2
           R1           0.95711
           R2           0.15503   0.95711
           A1          -0.00000  -0.00000   0.03565
           A2           0.00000   0.00000  -0.00000   0.03565
 ITU=  1  1  0
 Use linear search instead of GDIIS.
     Eigenvalues ---    0.03565   0.03565   0.80209   1.11214
 RFO step:  Lambda= 0.00000000D+00 EMin= 3.56487692D-02
 Quartic linear search produced a step of -0.00924.
 Iteration  1 RMS(Cart)=  0.00003656 RMS(Int)=  0.00000001
 Iteration  2 RMS(Cart)=  0.00000001 RMS(Int)=  0.00000001
 ClnCor:  largest displacement from symmetrization is 1.55D-08 for atom     1.
 Variable       Old X    -DE/DX   Delta X   Delta X   Delta X     New X
                                 (Linear)    (Quad)   (Total)
    R1        2.20601   0.00006   0.00005   0.00000   0.00005   2.20606
    R2        2.20601   0.00006   0.00005  -0.00000   0.00005   2.20606
    A1        3.14159  -0.00000   0.00000  -0.00000   0.00000   3.14159
    A2        3.14159   0.00000   0.00000   0.00000   0.00000   3.14159
         Item               Value     Threshold  Converged?
 Maximum Force            0.000058     0.000450     YES
 RMS     Force            0.000041     0.000300     YES
 Maximum Displacement     0.000044     0.001800     YES
 RMS     Displacement     0.000037     0.001200     YES
 Predicted change in Energy=-3.034376D-09
 Optimization completed.
    -- Stationary point found.
                           ----------------------------
                           !   Optimized Parameters   !
                           ! (Angstroms and Degrees)  !
 --------------------------                            --------------------------
 ! Name  Definition              Value          Derivative Info.                !
 --------------------------------------------------------------------------------
 ! R1    R(1,2)                  1.1674         -DE/DX =    0.0001              !
 ! R2    R(1,3)                  1.1674         -DE/DX =    0.0001              !
 ! A1    L(2,1,3,-3,-1)        180.0            -DE/DX =    0.0                 !
 ! A2    L(2,1,3,-2,-2)        180.0            -DE/DX =    0.0                 !
 --------------------------------------------------------------------------------
 GradGradGradGradGradGradGradGradGradGradGradGradGradGradGradGradGradGrad

                          Input orientation:                          
 ---------------------------------------------------------------------
 Center     Atomic      Atomic             Coordinates (Angstroms)
 Number     Number       Type             X           Y           Z
 ---------------------------------------------------------------------
      1          6           0       -3.372823    0.780260   -0.000000
      2          8           0       -2.374081    0.175885    0.000000
      3          8           0       -4.371564    1.384635   -0.000000
 ---------------------------------------------------------------------
                    Distance matrix (angstroms):
                    1          2          3
     1  C    0.000000
     2  O    1.167371   0.000000
     3  O    1.167371   2.334741   0.000000
 Stoichiometry    CO2
 Framework group  D*H[O(C),C*(O.O)]
 Deg. of freedom     1
 Full point group                 D*H     NOp   8
 Largest Abelian subgroup         D2H     NOp   8
 Largest concise Abelian subgroup C2      NOp   2
                         Standard orientation:                         
 ---------------------------------------------------------------------
 Center     Atomic      Atomic             Coordinates (Angstroms)
 Number     Number       Type             X           Y           Z
 ---------------------------------------------------------------------
      1          6           0        0.000000    0.000000    0.000000
      2          8           0       -0.000000    0.000000    1.167371
      3          8           0        0.000000   -0.000000   -1.167371
 ---------------------------------------------------------------------
 Rotational constants (GHZ):           0.0000000          11.5927832          11.5927832

 **********************************************************************

            Population analysis using the SCF Density.

 **********************************************************************

 Orbital symmetries:
       Occupied  (SGU) (SGG) (SGG) (SGG) (SGU) (SGG) (SGU) (PIU)
                 (PIU) (PIG) (PIG)
       Virtual   (PIU) (PIU) (SGG) (SGU) (PIU) (PIU) (SGG) (SGU)
                 (SGG) (PIG) (PIG) (DLTG) (DLTG) (SGU) (PIU) (PIU)
                 (PIG) (PIG) (SGG) (SGU) (DLTU) (DLTU) (DLTG) (DLTG)
                 (SGG) (PIU) (PIU) (SGG) (PIG) (PIG) (SGU)
 The electronic state is 1-SGG.
 Alpha  occ. eigenvalues --  -19.22371 -19.22371 -10.38050  -1.15982  -1.11926
 Alpha  occ. eigenvalues --   -0.56131  -0.51663  -0.51210  -0.51210  -0.36756
 Alpha  occ. eigenvalues --   -0.36756
 Alpha virt. eigenvalues --    0.03306   0.03306   0.08152   0.34268   0.41443
 Alpha virt. eigenvalues --    0.41443   0.54032   0.74396   0.83046   0.86775
 Alpha virt. eigenvalues --    0.86775   1.03934   1.03934   1.07653   1.08728
 Alpha virt. eigenvalues --    1.08728   1.29447   1.29447   1.58888   2.03184
 Alpha virt. eigenvalues --    2.52071   2.52071   2.64772   2.64772   2.70291
 Alpha virt. eigenvalues --    2.73646   2.73646   3.36662   3.47066   3.47066
 Alpha virt. eigenvalues --    3.50042
          Condensed to atoms (all electrons):
               1          2          3
     1  C    4.203557   0.753958   0.753958
     2  O    0.753958   7.417112  -0.026806
     3  O    0.753958  -0.026806   7.417112
 Mulliken charges:
               1
     1  C    0.288528
     2  O   -0.144264
     3  O   -0.144264
 Sum of Mulliken charges =  -0.00000
 Mulliken charges with hydrogens summed into heavy atoms:
               1
     1  C    0.288528
     2  O   -0.144264
     3  O   -0.144264
 Electronic spatial extent (au):  <R**2>=            113.2371
 Charge=             -0.0000 electrons
 Dipole moment (field-independent basis, Debye):
    X=              0.0000    Y=             -0.0000    Z=              0.0000  Tot=              0.0000
 Quadrupole moment (field-independent basis, Debye-Ang):
   XX=            -14.4449   YY=            -14.4449   ZZ=            -18.6885
   XY=             -0.0000   XZ=             -0.0000   YZ=             -0.0000
 Traceless Quadrupole moment (field-independent basis, Debye-Ang):
   XX=              1.4145   YY=              1.4145   ZZ=             -2.8290
   XY=             -0.0000   XZ=             -0.0000   YZ=             -0.0000
 Octapole moment (field-independent basis, Debye-Ang**2):
  XXX=              0.0000  YYY=             -0.0000  ZZZ=              0.0000  XYY=              0.0000
  XXY=             -0.0000  XXZ=              0.0000  XZZ=              0.0000  YZZ=             -0.0000
  YYZ=              0.0000  XYZ=             -0.0000
 Hexadecapole moment (field-independent basis, Debye-Ang**3):
 XXXX=            -10.4922 YYYY=            -10.4922 ZZZZ=            -99.0373 XXXY=             -0.0000
 XXXZ=             -0.0000 YYYX=             -0.0000 YYYZ=              0.0000 ZZZX=             -0.0000
 ZZZY=             -0.0000 XXYY=             -3.4974 XXZZ=            -17.7481 YYZZ=            -17.7481
 XXYZ=              0.0000 YYXZ=             -0.0000 ZZXY=             -0.0000
 N-N= 5.802328602929D+01 E-N=-5.597617813476D+02  KE= 1.875140422254D+02
 Symmetry AG   KE= 1.011943332048D+02
 Symmetry B1G  KE= 4.419001920719D-32
 Symmetry B2G  KE= 4.911754030789D+00
 Symmetry B3G  KE= 4.911754030789D+00
 Symmetry AU   KE= 3.072421983845D-32
 Symmetry B1U  KE= 6.925995621986D+01
 Symmetry B2U  KE= 3.618122369618D+00
 Symmetry B3U  KE= 3.618122369618D+00
 1\1\GINC-SUBZERO\FOpt\RB3LYP\CC-pVDZ\C1O2\TURKI\08-Apr-2021\0\\# opt f
 req b3lyp/CC-PVDZ geom=connectivity\\Title Card Required\\0,1\C,-3.372
 8227973,0.7802597664,0.\O,-2.3740811341,0.1758845518,0.\O,-4.371564460
 5,1.3846349809,0.\\Version=ES64L-G16RevB.01\State=1-SGG\HF=-188.598467
 1\RMSD=9.997e-10\RMSF=2.739e-05\Dipole=0.,0.,0.\Quadrupole=-1.2576622,
 0.206006,1.0516562,1.3974533,0.,0.\PG=D*H [O(C1),C*(O1.O1)]\\@


 ... A MOLECULAR SYSTEM ... (PASSES) ... FROM ONE STATE OF EQUILIBRIUM 
 TO ANOTHER ... BY MEANS OF ALL POSSIBLE INTERMEDIATE PATHS, 
 BUT THE PATH MOST ECONOMICAL OF ENERGY WILL BE THE MORE OFTEN TRAVELED.

                      -- HENRY EYRING, 1945
 Job cpu time:       0 days  0 hours  0 minutes 33.5 seconds.
 Elapsed time:       0 days  0 hours  0 minutes  3.6 seconds.
 File lengths (MBytes):  RWF=      6 Int=      0 D2E=      0 Chk=      1 Scr=      1
 Normal termination of Gaussian 16 at Thu Apr  8 15:44:20 2021.
 Link1:  Proceeding to internal job step number  2.
 -------------------------------------------------------------------
 #N Geom=AllCheck Guess=TCheck SCRF=Check GenChk RB3LYP/CC-pVDZ Freq
 -------------------------------------------------------------------
 1/10=4,29=7,30=1,38=1,40=1/1,3;
 2/12=2,40=1/2;
 3/5=16,11=2,14=-4,25=1,30=1,70=2,71=2,74=-5,116=1,140=1/1,2,3;
 4/5=101/1;
 5/5=2,38=6,98=1/2;
 8/6=4,10=90,11=11/1;
 11/6=1,8=1,9=11,15=111,16=1/1,2,10;
 10/6=1/2;
 6/7=2,8=2,9=2,10=2,28=1/1;
 7/8=1,10=1,25=1/1,2,3,16;
 1/10=4,30=1/3;
 99//99;
 Structure from the checkpoint file:  "/home/turki/random_projects/basis_set/Gau-52665.chk"
 -------------------
 Title Card Required
 -------------------
 Charge =  0 Multiplicity = 1
 Redundant internal coordinates found in file.  (old form).
 C,0,-3.3728227973,0.7802597664,0.
 O,0,-2.3740811341,0.1758845518,0.
 O,0,-4.3715644605,1.3846349809,0.
 Recover connectivity data from disk.

 GradGradGradGradGradGradGradGradGradGradGradGradGradGradGradGradGradGrad
 Berny optimization.
 Initialization pass.
                           ----------------------------
                           !    Initial Parameters    !
                           ! (Angstroms and Degrees)  !
 --------------------------                            --------------------------
 ! Name  Definition              Value          Derivative Info.                !
 --------------------------------------------------------------------------------
 ! R1    R(1,2)                  1.1674         calculate D2E/DX2 analytically  !
 ! R2    R(1,3)                  1.1674         calculate D2E/DX2 analytically  !
 ! A1    L(2,1,3,-3,-1)        180.0            calculate D2E/DX2 analytically  !
 ! A2    L(2,1,3,-2,-2)        180.0            calculate D2E/DX2 analytically  !
 --------------------------------------------------------------------------------
 Trust Radius=3.00D-01 FncErr=1.00D-07 GrdErr=1.00D-07 EigMax=2.50D+02 EigMin=1.00D-04
 Number of steps in this run=      2 maximum allowed number of steps=      2.
 GradGradGradGradGradGradGradGradGradGradGradGradGradGradGradGradGradGrad

                          Input orientation:                          
 ---------------------------------------------------------------------
 Center     Atomic      Atomic             Coordinates (Angstroms)
 Number     Number       Type             X           Y           Z
 ---------------------------------------------------------------------
      1          6           0       -3.372823    0.780260   -0.000000
      2          8           0       -2.374081    0.175885    0.000000
      3          8           0       -4.371564    1.384635   -0.000000
 ---------------------------------------------------------------------
                    Distance matrix (angstroms):
                    1          2          3
     1  C    0.000000
     2  O    1.167371   0.000000
     3  O    1.167371   2.334741   0.000000
 Stoichiometry    CO2
 Framework group  D*H[O(C),C*(O.O)]
 Deg. of freedom     1
 Full point group                 D*H     NOp   8
 Largest Abelian subgroup         D2H     NOp   8
 Largest concise Abelian subgroup C2      NOp   2
                         Standard orientation:                         
 ---------------------------------------------------------------------
 Center     Atomic      Atomic             Coordinates (Angstroms)
 Number     Number       Type             X           Y           Z
 ---------------------------------------------------------------------
      1          6           0        0.000000    0.000000    0.000000
      2          8           0       -0.000000   -0.000000    1.167371
      3          8           0        0.000000   -0.000000   -1.167371
 ---------------------------------------------------------------------
 Rotational constants (GHZ):           0.0000000          11.5927832          11.5927832
 Standard basis: CC-pVDZ (5D, 7F)
 There are    14 symmetry adapted cartesian basis functions of AG  symmetry.
 There are     2 symmetry adapted cartesian basis functions of B1G symmetry.
 There are     4 symmetry adapted cartesian basis functions of B2G symmetry.
 There are     4 symmetry adapted cartesian basis functions of B3G symmetry.
 There are     1 symmetry adapted cartesian basis functions of AU  symmetry.
 There are    10 symmetry adapted cartesian basis functions of B1U symmetry.
 There are     5 symmetry adapted cartesian basis functions of B2U symmetry.
 There are     5 symmetry adapted cartesian basis functions of B3U symmetry.
 There are    12 symmetry adapted basis functions of AG  symmetry.
 There are     2 symmetry adapted basis functions of B1G symmetry.
 There are     4 symmetry adapted basis functions of B2G symmetry.
 There are     4 symmetry adapted basis functions of B3G symmetry.
 There are     1 symmetry adapted basis functions of AU  symmetry.
 There are     9 symmetry adapted basis functions of B1U symmetry.
 There are     5 symmetry adapted basis functions of B2U symmetry.
 There are     5 symmetry adapted basis functions of B3U symmetry.
    42 basis functions,    99 primitive gaussians,    45 cartesian basis functions
    11 alpha electrons       11 beta electrons
       nuclear repulsion energy        58.0232860293 Hartrees.
 NAtoms=    3 NActive=    3 NUniq=    2 SFac= 2.25D+00 NAtFMM=   60 NAOKFM=F Big=F
 Integral buffers will be    131072 words long.
 Raffenetti 2 integral format.
 Two-electron integral symmetry is turned on.
 One-electron integrals computed using PRISM.
 NBasis=    42 RedAO= T EigKep=  1.80D-02  NBF=    12     2     4     4     1     9     5     5
 NBsUse=    42 1.00D-06 EigRej= -1.00D+00 NBFU=    12     2     4     4     1     9     5     5
 Initial guess from the checkpoint file:  "/home/turki/random_projects/basis_set/Gau-52665.chk"
 B after Tr=     0.000000   -0.000000   -0.000000
         Rot=    1.000000    0.000000    0.000000    0.000000 Ang=   0.00 deg.
 Initial guess orbital symmetries:
       Occupied  (SGU) (SGG) (SGG) (SGG) (SGU) (SGG) (SGU) (PIU)
                 (PIU) (PIG) (PIG)
       Virtual   (PIU) (PIU) (SGG) (SGU) (PIU) (PIU) (SGG) (SGU)
                 (SGG) (PIG) (PIG) (DLTG) (DLTG) (SGU) (PIU) (PIU)
                 (PIG) (PIG) (SGG) (SGU) (DLTU) (DLTU) (DLTG) (DLTG)
                 (SGG) (PIU) (PIU) (SGG) (PIG) (PIG) (SGU)
 Keep R1 ints in memory in symmetry-blocked form, NReq=10835788.
 Requested convergence on RMS density matrix=1.00D-08 within 128 cycles.
 Requested convergence on MAX density matrix=1.00D-06.
 Requested convergence on             energy=1.00D-06.
 No special actions if energy rises.
 SCF Done:  E(RB3LYP) =  -188.598467133     A.U. after    1 cycles
            NFock=  1  Conv=0.19D-09     -V/T= 2.0058
 DoSCS=F DFT=T ScalE2(SS,OS)=  1.000000  1.000000
 Range of M.O.s used for correlation:     1    42
 NBasis=    42 NAE=    11 NBE=    11 NFC=     0 NFV=     0
 NROrb=     42 NOA=    11 NOB=    11 NVA=    31 NVB=    31
 Symmetrizing basis deriv contribution to polar:
 IMax=3 JMax=2 DiffMx= 0.00D+00
 G2DrvN: will do     4 centers at a time, making    1 passes.
 Calling FoFCou, ICntrl=  3107 FMM=F I1Cent=   0 AccDes= 0.00D+00.
 End of G2Drv F.D. properties file   721 does not exist.
 End of G2Drv F.D. properties file   722 does not exist.
 End of G2Drv F.D. properties file   788 does not exist.
          IDoAtm=111
          Differentiating once with respect to electric field.
                with respect to dipole field.
          Differentiating once with respect to nuclear coordinates.
 Keep R1 ints in memory in symmetry-blocked form, NReq=10796602.
          There are     9 degrees of freedom in the 1st order CPHF.  IDoFFX=4 NUNeed=     9.
      9 vectors produced by pass  0 Test12= 3.79D-15 1.11D-08 XBig12= 2.58D+01 3.40D+00.
 AX will form     9 AO Fock derivatives at one time.
      9 vectors produced by pass  1 Test12= 3.79D-15 1.11D-08 XBig12= 9.36D+00 1.43D+00.
      9 vectors produced by pass  2 Test12= 3.79D-15 1.11D-08 XBig12= 3.66D-02 7.18D-02.
      9 vectors produced by pass  3 Test12= 3.79D-15 1.11D-08 XBig12= 1.30D-04 5.52D-03.
      9 vectors produced by pass  4 Test12= 3.79D-15 1.11D-08 XBig12= 2.26D-07 1.47D-04.
      7 vectors produced by pass  5 Test12= 3.79D-15 1.11D-08 XBig12= 5.22D-10 9.14D-06.
      2 vectors produced by pass  6 Test12= 3.79D-15 1.11D-08 XBig12= 8.94D-12 1.54D-06.
      1 vectors produced by pass  7 Test12= 3.79D-15 1.11D-08 XBig12= 1.06D-14 4.58D-08.
 InvSVY:  IOpt=1 It=  1 EMax= 2.44D-16
 Solved reduced A of dimension    55 with     9 vectors.
 Isotropic polarizability for W=    0.000000       12.22 Bohr**3.
 End of Minotr F.D. properties file   721 does not exist.
 End of Minotr F.D. properties file   722 does not exist.
 End of Minotr F.D. properties file   788 does not exist.

 **********************************************************************

            Population analysis using the SCF Density.

 **********************************************************************

 Orbital symmetries:
       Occupied  (SGU) (SGG) (SGG) (SGG) (SGU) (SGG) (SGU) (PIU)
                 (PIU) (PIG) (PIG)
       Virtual   (PIU) (PIU) (SGG) (SGU) (PIU) (PIU) (SGG) (SGU)
                 (SGG) (PIG) (PIG) (DLTG) (DLTG) (SGU) (PIU) (PIU)
                 (PIG) (PIG) (SGG) (SGU) (DLTU) (DLTU) (DLTG) (DLTG)
                 (SGG) (PIU) (PIU) (SGG) (PIG) (PIG) (SGU)
 The electronic state is 1-SGG.
 Alpha  occ. eigenvalues --  -19.22371 -19.22371 -10.38050  -1.15982  -1.11926
 Alpha  occ. eigenvalues --   -0.56131  -0.51663  -0.51210  -0.51210  -0.36756
 Alpha  occ. eigenvalues --   -0.36756
 Alpha virt. eigenvalues --    0.03306   0.03306   0.08152   0.34268   0.41443
 Alpha virt. eigenvalues --    0.41443   0.54032   0.74396   0.83046   0.86775
 Alpha virt. eigenvalues --    0.86775   1.03934   1.03934   1.07653   1.08728
 Alpha virt. eigenvalues --    1.08728   1.29447   1.29447   1.58888   2.03184
 Alpha virt. eigenvalues --    2.52071   2.52071   2.64772   2.64772   2.70291
 Alpha virt. eigenvalues --    2.73646   2.73646   3.36662   3.47066   3.47066
 Alpha virt. eigenvalues --    3.50042
          Condensed to atoms (all electrons):
               1          2          3
     1  C    4.203557   0.753958   0.753958
     2  O    0.753958   7.417112  -0.026806
     3  O    0.753958  -0.026806   7.417112
 Mulliken charges:
               1
     1  C    0.288528
     2  O   -0.144264
     3  O   -0.144264
 Sum of Mulliken charges =  -0.00000
 Mulliken charges with hydrogens summed into heavy atoms:
               1
     1  C    0.288528
     2  O   -0.144264
     3  O   -0.144264
 APT charges:
               1
     1  C    1.095599
     2  O   -0.547800
     3  O   -0.547800
 Sum of APT charges =  -0.00000
 APT charges with hydrogens summed into heavy atoms:
               1
     1  C    1.095599
     2  O   -0.547800
     3  O   -0.547800
 Electronic spatial extent (au):  <R**2>=            113.2371
 Charge=             -0.0000 electrons
 Dipole moment (field-independent basis, Debye):
    X=              0.0000    Y=              0.0000    Z=             -0.0000  Tot=              0.0000
 Quadrupole moment (field-independent basis, Debye-Ang):
   XX=            -14.4449   YY=            -14.4449   ZZ=            -18.6885
   XY=              0.0000   XZ=             -0.0000   YZ=             -0.0000
 Traceless Quadrupole moment (field-independent basis, Debye-Ang):
   XX=              1.4145   YY=              1.4145   ZZ=             -2.8290
   XY=              0.0000   XZ=             -0.0000   YZ=             -0.0000
 Octapole moment (field-independent basis, Debye-Ang**2):
  XXX=              0.0000  YYY=              0.0000  ZZZ=             -0.0000  XYY=              0.0000
  XXY=              0.0000  XXZ=              0.0000  XZZ=              0.0000  YZZ=              0.0000
  YYZ=              0.0000  XYZ=              0.0000
 Hexadecapole moment (field-independent basis, Debye-Ang**3):
 XXXX=            -10.4922 YYYY=            -10.4922 ZZZZ=            -99.0373 XXXY=              0.0000
 XXXZ=             -0.0000 YYYX=              0.0000 YYYZ=             -0.0000 ZZZX=             -0.0000
 ZZZY=             -0.0000 XXYY=             -3.4974 XXZZ=            -17.7481 YYZZ=            -17.7481
 XXYZ=             -0.0000 YYXZ=             -0.0000 ZZXY=              0.0000
 N-N= 5.802328602929D+01 E-N=-5.597617814914D+02  KE= 1.875140423087D+02
 Symmetry AG   KE= 1.011943332201D+02
 Symmetry B1G  KE= 1.249297189367D-32
 Symmetry B2G  KE= 4.911754041671D+00
 Symmetry B3G  KE= 4.911754041671D+00
 Symmetry AU   KE= 3.720958134925D-33
 Symmetry B1U  KE= 6.925995623864D+01
 Symmetry B2U  KE= 3.618122383281D+00
 Symmetry B3U  KE= 3.618122383281D+00
  Exact polarizability:   7.607   0.000   7.607   0.000   0.000  21.441
 Approx polarizability:   9.661   0.000   9.661   0.000   0.000  45.788
 Calling FoFJK, ICntrl=    100127 FMM=F ISym2X=1 I1Cent= 0 IOpClX= 0 NMat=1 NMatS=1 NMatT=0.
 Full mass-weighted force constant matrix:
 Low frequencies ---   -6.7739   -6.7739    0.0018    0.0018    0.0018  654.9634
 Low frequencies ---  654.9634 1362.5022 2421.6819
 Diagonal vibrational polarizability:
        1.7977311       1.7977311       2.6505277
 Harmonic frequencies (cm**-1), IR intensities (KM/Mole), Raman scattering
 activities (A**4/AMU), depolarization ratios for plane and unpolarized
 incident light, reduced masses (AMU), force constants (mDyne/A),
 and normal coordinates:
                      1                      2                      3
                     PIU                    PIU                    SGG
 Frequencies --    654.9634               654.9634              1362.5022
 Red. masses --     12.8774                12.8774                15.9949
 Frc consts  --      3.2547                 3.2547                17.4947
 IR Inten    --     28.6567                28.6567                 0.0000
  Atom  AN      X      Y      Z        X      Y      Z        X      Y      Z
     1   6     0.88  -0.03   0.00     0.03   0.88   0.00     0.00  -0.00   0.00
     2   8    -0.33   0.01  -0.00    -0.01  -0.33   0.00    -0.00   0.00   0.71
     3   8    -0.33   0.01   0.00    -0.01  -0.33  -0.00    -0.00   0.00  -0.71
                      4
                     SGU
 Frequencies --   2421.6819
 Red. masses --     12.8774
 Frc consts  --     44.4950
 IR Inten    --    577.6083
  Atom  AN      X      Y      Z
     1   6    -0.00  -0.00   0.88
     2   8     0.00   0.00  -0.33
     3   8     0.00   0.00  -0.33

 -------------------
 - Thermochemistry -
 -------------------
 Temperature   298.150 Kelvin.  Pressure   1.00000 Atm.
 Atom     1 has atomic number  6 and mass  12.00000
 Atom     2 has atomic number  8 and mass  15.99491
 Atom     3 has atomic number  8 and mass  15.99491
 Molecular mass:    43.98983 amu.
 Principal axes and moments of inertia in atomic units:
                           1         2         3
     Eigenvalues --     0.00000 155.67799 155.67799
           X            0.00000   0.21026   0.97765
           Y            0.00000   0.97765  -0.21026
           Z            1.00000  -0.00000   0.00000
 This molecule is a prolate symmetric top.
 Rotational symmetry number  2.
 Rotational temperature (Kelvin)      0.55637
 Rotational constant (GHZ):          11.592783
 Zero-point vibrational energy      30469.5 (Joules/Mol)
                                    7.28240 (Kcal/Mol)
 Vibrational temperatures:    942.35   942.35  1960.34  3484.26
          (Kelvin)
 
 Zero-point correction=                           0.011605 (Hartree/Particle)
 Thermal correction to Energy=                    0.014239
 Thermal correction to Enthalpy=                  0.015183
 Thermal correction to Gibbs Free Energy=        -0.009104
 Sum of electronic and zero-point Energies=           -188.586862
 Sum of electronic and thermal Energies=              -188.584228
 Sum of electronic and thermal Enthalpies=            -188.583284
 Sum of electronic and thermal Free Energies=         -188.607572
 
                     E (Thermal)             CV                S
                      KCal/Mol        Cal/Mol-Kelvin    Cal/Mol-Kelvin
 Total                    8.935              6.926             51.117
 Electronic               0.000              0.000              0.000
 Translational            0.889              2.981             37.270
 Rotational               0.592              1.987             13.097
 Vibrational              7.454              1.958              0.750
                       Q            Log10(Q)             Ln(Q)
 Total Bot       0.154075D+05          4.187732          9.642610
 Total V=0       0.335557D+10          9.525767         21.933888
 Vib (Bot)       0.501425D-05         -5.299794        -12.203227
 Vib (V=0)       0.109204D+01          0.038240          0.088051
 Electronic      0.100000D+01          0.000000          0.000000
 Translational   0.114679D+08          7.059482         16.255059
 Rotational      0.267944D+03          2.428044          5.590779
 ***** Axes restored to original set *****
 -------------------------------------------------------------------
 Center     Atomic                   Forces (Hartrees/Bohr)
 Number     Number              X              Y              Z
 -------------------------------------------------------------------
      1        6           0.000000000   -0.000000000   -0.000000000
      2        8           0.000049702   -0.000030077   -0.000000000
      3        8          -0.000049702    0.000030077    0.000000000
 -------------------------------------------------------------------
 Cartesian Forces:  Max     0.000049702 RMS     0.000027386
 FormGI is forming the generalized inverse of G from B-inverse, IUseBI=4.

 GradGradGradGradGradGradGradGradGradGradGradGradGradGradGradGradGradGrad
 Berny optimization.
 Internal  Forces:  Max     0.000058094 RMS     0.000041079
 Search for a local minimum.
 Step number   1 out of a maximum of    2
 All quantities printed in internal units (Hartrees-Bohrs-Radians)
 Second derivative matrix not updated -- analytic derivatives used.
 The second derivative matrix:
                          R1        R2        A1        A2
           R1           1.04603
           R2           0.07767   1.04603
           A1          -0.00000   0.00000   0.17242
           A2          -0.00000   0.00000  -0.00000   0.12620
 ITU=  0
     Eigenvalues ---    0.12620   0.17242   0.96836   1.12369
 Angle between quadratic step and forces=   0.00 degrees.
 Linear search not attempted -- first point.
 Iteration  1 RMS(Cart)=  0.00003656 RMS(Int)=  0.00000000
 Iteration  2 RMS(Cart)=  0.00000000 RMS(Int)=  0.00000001
 ClnCor:  largest displacement from symmetrization is 5.25D-13 for atom     1.
 Variable       Old X    -DE/DX   Delta X   Delta X   Delta X     New X
                                 (Linear)    (Quad)   (Total)
    R1        2.20601   0.00006   0.00000   0.00005   0.00005   2.20606
    R2        2.20601   0.00006   0.00000   0.00005   0.00005   2.20606
    A1        3.14159   0.00000   0.00000   0.00000   0.00000   3.14159
    A2        3.14159  -0.00000   0.00000  -0.00000  -0.00000   3.14159
         Item               Value     Threshold  Converged?
 Maximum Force            0.000058     0.000450     YES
 RMS     Force            0.000041     0.000300     YES
 Maximum Displacement     0.000044     0.001800     YES
 RMS     Displacement     0.000037     0.001200     YES
 Predicted change in Energy=-3.003415D-09
 Optimization completed.
    -- Stationary point found.
                           ----------------------------
                           !   Optimized Parameters   !
                           ! (Angstroms and Degrees)  !
 --------------------------                            --------------------------
 ! Name  Definition              Value          Derivative Info.                !
 --------------------------------------------------------------------------------
 ! R1    R(1,2)                  1.1674         -DE/DX =    0.0001              !
 ! R2    R(1,3)                  1.1674         -DE/DX =    0.0001              !
 ! A1    L(2,1,3,-3,-1)        180.0            -DE/DX =    0.0                 !
 ! A2    L(2,1,3,-2,-2)        180.0            -DE/DX =    0.0                 !
 --------------------------------------------------------------------------------
 GradGradGradGradGradGradGradGradGradGradGradGradGradGradGradGradGradGrad

 Dipole is zero, so no output in dipole orientation.

 ----------------------------------------------------------------------

 Electric dipole moment (input orientation):
 (Debye = 10**-18 statcoulomb cm , SI units = C m)
                  (au)            (Debye)         (10**-30 SI)
   Tot        0.000000D+00      0.000000D+00      0.000000D+00
   x          0.000000D+00      0.000000D+00      0.000000D+00
   y          0.000000D+00      0.000000D+00      0.000000D+00
   z          0.000000D+00      0.000000D+00      0.000000D+00

 Dipole polarizability, Alpha (input orientation).
 (esu units = cm**3 , SI units = C**2 m**2 J**-1)
 Alpha(0;0):
               (au)            (10**-24 esu)      (10**-40 SI)
   iso        0.122179D+02      0.181051D+01      0.201447D+01
   aniso      0.138342D+02      0.205002D+01      0.228095D+01
   xx         0.177327D+02      0.262771D+01      0.292372D+01
   yx        -0.612769D+01     -0.908030D+00     -0.101032D+01
   yy         0.113146D+02      0.167666D+01      0.186553D+01
   zx         0.000000D+00      0.000000D+00      0.000000D+00
   zy         0.000000D+00      0.000000D+00      0.000000D+00
   zz         0.760654D+01      0.112717D+01      0.125415D+01

 ----------------------------------------------------------------------
 1\1\GINC-SUBZERO\Freq\RB3LYP\CC-pVDZ\C1O2\TURKI\08-Apr-2021\0\\#N Geom
 =AllCheck Guess=TCheck SCRF=Check GenChk RB3LYP/CC-pVDZ Freq\\Title Ca
 rd Required\\0,1\C,-3.3728227973,0.7802597664,0.\O,-2.3740811341,0.175
 8845518,0.\O,-4.3715644605,1.3846349809,0.\\Version=ES64L-G16RevB.01\S
 tate=1-SGG\HF=-188.5984671\RMSD=1.923e-10\RMSF=2.739e-05\ZeroPoint=0.0
 116052\Thermal=0.0142387\Dipole=0.,0.,0.\DipoleDeriv=1.8001258,-0.7828
 358,0.,-0.7828358,0.9801972,0.,0.,0.,0.5064745,-0.9000629,0.3914179,0.
 ,0.3914179,-0.4900986,0.,0.,0.,-0.2532373,-0.9000629,0.3914179,0.,0.39
 14179,-0.4900986,0.,0.,0.,-0.2532373\Polar=17.732665,-6.1276879,11.314
 6316,0.,0.,7.6065429\Quadrupole=-1.2576622,0.206006,1.0516562,1.397453
 3,0.,0.\PG=D*H [O(C1),C*(O1.O1)]\NImag=0\\1.45557710,-0.79509566,0.622
 80778,0.,0.,0.14166623,-0.72778855,0.39754783,0.,0.77514119,0.39754783
 ,-0.31140389,0.,-0.44764291,0.30628781,0.,0.,-0.07083312,0.,0.,0.03540
 267,-0.72778855,0.39754783,0.,-0.04735264,0.05009508,0.,0.77514119,0.3
 9754783,-0.31140389,0.,0.05009508,0.00511608,0.,-0.44764291,0.30628781
 ,0.,0.,-0.07083312,0.,0.,0.03543044,0.,0.,0.03540267\\0.,0.,0.,-0.0000
 4970,0.00003008,0.,0.00004970,-0.00003008,0.\\\@


 Discoveries are often made by not following instructions,
 by going off the main road, by trying the untried.
 -- Frank Tyger
 Job cpu time:       0 days  0 hours  0 minutes 21.9 seconds.
 Elapsed time:       0 days  0 hours  0 minutes  2.2 seconds.
 File lengths (MBytes):  RWF=      6 Int=      0 D2E=      0 Chk=      1 Scr=      1
 Normal termination of Gaussian 16 at Thu Apr  8 15:44:22 2021.
