 Entering Gaussian System, Link 0=g16
 Input=co2_qz.com
 Output=co2_qz.log
 Initial command:
 /usr/local/g16/l1.exe "/home/turki/random_projects/basis_set/Gau-53458.inp" -scrdir="/home/turki/random_projects/basis_set/"
 Entering Link 1 = /usr/local/g16/l1.exe PID=     53459.
  
 Copyright (c) 1988-2017, Gaussian, Inc.  All Rights Reserved.
  
 This is part of the Gaussian(R) 16 program.  It is based on
 the Gaussian(R) 09 system (copyright 2009, Gaussian, Inc.),
 the Gaussian(R) 03 system (copyright 2003, Gaussian, Inc.),
 the Gaussian(R) 98 system (copyright 1998, Gaussian, Inc.),
 the Gaussian(R) 94 system (copyright 1995, Gaussian, Inc.),
 the Gaussian 92(TM) system (copyright 1992, Gaussian, Inc.),
 the Gaussian 90(TM) system (copyright 1990, Gaussian, Inc.),
 the Gaussian 88(TM) system (copyright 1988, Gaussian, Inc.),
 the Gaussian 86(TM) system (copyright 1986, Carnegie Mellon
 University), and the Gaussian 82(TM) system (copyright 1983,
 Carnegie Mellon University). Gaussian is a federally registered
 trademark of Gaussian, Inc.
  
 This software contains proprietary and confidential information,
 including trade secrets, belonging to Gaussian, Inc.
  
 This software is provided under written license and may be
 used, copied, transmitted, or stored only in accord with that
 written license.
  
 The following legend is applicable only to US Government
 contracts under FAR:
  
                    RESTRICTED RIGHTS LEGEND
  
 Use, reproduction and disclosure by the US Government is
 subject to restrictions as set forth in subparagraphs (a)
 and (c) of the Commercial Computer Software - Restricted
 Rights clause in FAR 52.227-19.
  
 Gaussian, Inc.
 340 Quinnipiac St., Bldg. 40, Wallingford CT 06492
  
  
 ---------------------------------------------------------------
 Warning -- This program may not be used in any manner that
 competes with the business of Gaussian, Inc. or will provide
 assistance to any competitor of Gaussian, Inc.  The licensee
 of this program is prohibited from giving any competitor of
 Gaussian, Inc. access to this program.  By using this program,
 the user acknowledges that Gaussian, Inc. is engaged in the
 business of creating and licensing software in the field of
 computational chemistry and represents and warrants to the
 licensee that it is not a competitor of Gaussian, Inc. and that
 it will not use this program in any manner prohibited above.
 ---------------------------------------------------------------
  

 Cite this work as:
 Gaussian 16, Revision B.01,
 M. J. Frisch, G. W. Trucks, H. B. Schlegel, G. E. Scuseria, 
 M. A. Robb, J. R. Cheeseman, G. Scalmani, V. Barone, 
 G. A. Petersson, H. Nakatsuji, X. Li, M. Caricato, A. V. Marenich, 
 J. Bloino, B. G. Janesko, R. Gomperts, B. Mennucci, H. P. Hratchian, 
 J. V. Ortiz, A. F. Izmaylov, J. L. Sonnenberg, D. Williams-Young, 
 F. Ding, F. Lipparini, F. Egidi, J. Goings, B. Peng, A. Petrone, 
 T. Henderson, D. Ranasinghe, V. G. Zakrzewski, J. Gao, N. Rega, 
 G. Zheng, W. Liang, M. Hada, M. Ehara, K. Toyota, R. Fukuda, 
 J. Hasegawa, M. Ishida, T. Nakajima, Y. Honda, O. Kitao, H. Nakai, 
 T. Vreven, K. Throssell, J. A. Montgomery, Jr., J. E. Peralta, 
 F. Ogliaro, M. J. Bearpark, J. J. Heyd, E. N. Brothers, K. N. Kudin, 
 V. N. Staroverov, T. A. Keith, R. Kobayashi, J. Normand, 
 K. Raghavachari, A. P. Rendell, J. C. Burant, S. S. Iyengar, 
 J. Tomasi, M. Cossi, J. M. Millam, M. Klene, C. Adamo, R. Cammi, 
 J. W. Ochterski, R. L. Martin, K. Morokuma, O. Farkas, 
 J. B. Foresman, and D. J. Fox, Gaussian, Inc., Wallingford CT, 2016.
 
 ******************************************
 Gaussian 16:  ES64L-G16RevB.01 20-Dec-2017
                 8-Apr-2021 
 ******************************************
 %mem=24GB
 %nprocshared=12
 Will use up to   12 processors via shared memory.
 ------------------------------------------
 # opt freq b3lyp/CC-PVQZ geom=connectivity
 ------------------------------------------
 1/18=20,19=15,26=3,38=1,57=2/1,3;
 2/9=110,12=2,17=6,18=5,40=1/2;
 3/5=16,6=2,11=2,25=1,30=1,71=1,74=-5/1,2,3;
 4//1;
 5/5=2,38=5/2;
 6/7=2,8=2,9=2,10=2,28=1/1;
 7//1,2,3,16;
 1/18=20,19=15,26=3/3(2);
 2/9=110/2;
 99//99;
 2/9=110/2;
 3/5=16,6=2,11=2,25=1,30=1,71=1,74=-5/1,2,3;
 4/5=5,16=3,69=1/1;
 5/5=2,38=5/2;
 7//1,2,3,16;
 1/18=20,19=15,26=3/3(-5);
 2/9=110/2;
 6/7=2,8=2,9=2,10=2,19=2,28=1/1;
 99/9=1/99;
 -------------------
 Title Card Required
 -------------------
 Symbolic Z-matrix:
 Charge =  0 Multiplicity = 1
 C                    -3.37282   0.78026   0. 
 O                    -2.2962    0.12876   0. 
 O                    -4.44944   1.43176   0. 
 

 GradGradGradGradGradGradGradGradGradGradGradGradGradGradGradGradGradGrad
 Berny optimization.
 Initialization pass.
                           ----------------------------
                           !    Initial Parameters    !
                           ! (Angstroms and Degrees)  !
 --------------------------                            --------------------------
 ! Name  Definition              Value          Derivative Info.                !
 --------------------------------------------------------------------------------
 ! R1    R(1,2)                  1.2584         estimate D2E/DX2                !
 ! R2    R(1,3)                  1.2584         estimate D2E/DX2                !
 ! A1    L(2,1,3,-3,-1)        179.9999         estimate D2E/DX2                !
 ! A2    L(2,1,3,-2,-2)        180.0            estimate D2E/DX2                !
 --------------------------------------------------------------------------------
 Trust Radius=3.00D-01 FncErr=1.00D-07 GrdErr=1.00D-06 EigMax=2.50D+02 EigMin=1.00D-04
 Number of steps in this run=     20 maximum allowed number of steps=    100.
 GradGradGradGradGradGradGradGradGradGradGradGradGradGradGradGradGradGrad

                          Input orientation:                          
 ---------------------------------------------------------------------
 Center     Atomic      Atomic             Coordinates (Angstroms)
 Number     Number       Type             X           Y           Z
 ---------------------------------------------------------------------
      1          6           0       -3.372822    0.780261    0.000000
      2          8           0       -2.296201    0.128756    0.000000
      3          8           0       -4.449445    1.431763    0.000000
 ---------------------------------------------------------------------
                    Distance matrix (angstroms):
                    1          2          3
     1  C    0.000000
     2  O    1.258400   0.000000
     3  O    1.258400   2.516800   0.000000
 Stoichiometry    CO2
 Framework group  D*H[C*(O.O),X(C)]
 NumDoF:  Unrecognized symmetric subspace, IChar="X   "
 Deg. of freedom    -1
 Full point group                         NOp   0
 Largest Abelian subgroup         D2H     NOp   8
 Largest concise Abelian subgroup C2      NOp   2
                         Standard orientation:                         
 ---------------------------------------------------------------------
 Center     Atomic      Atomic             Coordinates (Angstroms)
 Number     Number       Type             X           Y           Z
 ---------------------------------------------------------------------
      1          6           0       -0.000000    0.000000   -0.000000
      2          8           0       -0.000000   -0.000000    1.258400
      3          8           0        0.000000   -0.000000   -1.258400
 ---------------------------------------------------------------------
 Rotational constants (GHZ):           0.0000000           9.9762623           9.9762623
 Standard basis: CC-pVQZ (5D, 7F)
 There are    50 symmetry adapted cartesian basis functions of AG  symmetry.
 There are    14 symmetry adapted cartesian basis functions of B1G symmetry.
 There are    22 symmetry adapted cartesian basis functions of B2G symmetry.
 There are    22 symmetry adapted cartesian basis functions of B3G symmetry.
 There are    10 symmetry adapted cartesian basis functions of AU  symmetry.
 There are    40 symmetry adapted cartesian basis functions of B1U symmetry.
 There are    26 symmetry adapted cartesian basis functions of B2U symmetry.
 There are    26 symmetry adapted cartesian basis functions of B3U symmetry.
 There are    36 symmetry adapted basis functions of AG  symmetry.
 There are    12 symmetry adapted basis functions of B1G symmetry.
 There are    18 symmetry adapted basis functions of B2G symmetry.
 There are    18 symmetry adapted basis functions of B3G symmetry.
 There are     9 symmetry adapted basis functions of AU  symmetry.
 There are    30 symmetry adapted basis functions of B1U symmetry.
 There are    21 symmetry adapted basis functions of B2U symmetry.
 There are    21 symmetry adapted basis functions of B3U symmetry.
   165 basis functions,   267 primitive gaussians,   210 cartesian basis functions
    11 alpha electrons       11 beta electrons
       nuclear repulsion energy        53.8260354292 Hartrees.
 NAtoms=    3 NActive=    3 NUniq=    2 SFac= 2.25D+00 NAtFMM=   60 NAOKFM=F Big=F
 Integral buffers will be    131072 words long.
 Raffenetti 2 integral format.
 Two-electron integral symmetry is turned on.
 One-electron integrals computed using PRISM.
 NBasis=   165 RedAO= T EigKep=  4.21D-04  NBF=    36    12    18    18     9    30    21    21
 NBsUse=   165 1.00D-06 EigRej= -1.00D+00 NBFU=    36    12    18    18     9    30    21    21
 ExpMin= 1.01D-01 ExpMax= 6.14D+04 ExpMxC= 5.91D+02 IAcc=3 IRadAn=         5 AccDes= 0.00D+00
 Harris functional with IExCor=  402 and IRadAn=       5 diagonalized for initial guess.
 HarFok:  IExCor=  402 AccDes= 0.00D+00 IRadAn=         5 IDoV= 1 UseB2=F ITyADJ=14
 ICtDFT=  3500011 ScaDFX=  1.000000  1.000000  1.000000  1.000000
 FoFCou: FMM=F IPFlag=           0 FMFlag=      100000 FMFlg1=           0
         NFxFlg=           0 DoJE=T BraDBF=F KetDBF=T FulRan=T
         wScrn=  0.000000 ICntrl=       500 IOpCl=  0 I1Cent=   200000004 NGrid=           0
         NMat0=    1 NMatS0=      1 NMatT0=    0 NMatD0=    1 NMtDS0=    0 NMtDT0=    0
 Petite list used in FoFCou.
 Initial guess orbital symmetries:
       Occupied  (SGG) (SGU) (SGG) (SGG) (SGU) (SGG) (SGU) (PIU)
                 (PIU) (PIG) (PIG)
       Virtual   (PIU) (PIU) (SGG) (SGU) (SGG) (PIU) (PIU) (SGG)
                 (SGU) (PIG) (PIG) (DLTG) (DLTG) (PIU) (PIU) (SGU)
                 (SGG) (PIG) (PIG) (SGU) (DLTU) (DLTU) (SGG) (DLTG)
                 (DLTG) (PIU) (PIU) (SGU) (SGG) (PIU) (PIU) (PIG)
                 (PIG) (PHIU) (PHIU) (SGU) (DLTG) (DLTG) (PIG)
                 (PIG) (DLTU) (DLTU) (SGG) (PIU) (PIU) (SGG) (PIG)
                 (PIG) (SGU) (PIU) (PIU) (SGG) (PHIG) (PHIG) (PHIU)
                 (PHIU) (DLTG) (DLTG) (SGU) (SGG) (DLTU) (DLTU)
                 (DLTG) (DLTG) (SGU) (PIG) (PIG) (PIU) (PIU) (DLTU)
                 (DLTU) (SGU) (SGG) (PIU) (PIU) (PIG) (PIG) (SGU)
                 (?A) (?A) (PHIG) (PHIG) (SGG) (PIU) (PIU) (DLTG)
                 (DLTG) (PIG) (PIG) (PHIU) (PHIU) (DLTU) (DLTU)
                 (SGG) (DLTG) (DLTG) (SGU) (PIU) (PIU) (SGG) (PIG)
                 (PIG) (SGU) (?B) (?B) (?A) (?A) (PHIU) (PHIU)
                 (PHIG) (PHIG) (DLTU) (DLTU) (PIG) (PIG) (PIU)
                 (PIU) (SGG) (DLTG) (DLTG) (PIU) (PIU) (SGU) (PIG)
                 (PIG) (SGU) (SGG) (PHIG) (PHIG) (PHIU) (PHIU)
                 (DLTG) (DLTG) (DLTU) (DLTU) (PIG) (PIG) (PIU)
                 (PIU) (DLTU) (DLTU) (DLTG) (DLTG) (SGU) (SGG)
                 (PIU) (PIU) (SGG) (PIG) (PIG) (SGU) (SGG) (SGU)
                 (SGG)
 The electronic state of the initial guess is 1-SGG.
 Keep R1 ints in memory in symmetry-blocked form, NReq=107460002.
 Requested convergence on RMS density matrix=1.00D-08 within 128 cycles.
 Requested convergence on MAX density matrix=1.00D-06.
 Requested convergence on             energy=1.00D-06.
 No special actions if energy rises.
 Integral accuracy reduced to 1.0D-05 until final iterations.
 Initial convergence to 1.0D-05 achieved.  Increase integral accuracy.
 SCF Done:  E(RB3LYP) =  -188.644413338     A.U. after    9 cycles
            NFock=  9  Conv=0.51D-08     -V/T= 2.0077

 **********************************************************************

            Population analysis using the SCF Density.

 **********************************************************************

 Orbital symmetries:
       Occupied  (SGU) (SGG) (SGG) (SGG) (SGU) (SGG) (SGU) (PIU)
                 (PIU) (PIG) (PIG)
       Virtual   (PIU) (PIU) (SGG) (SGU) (PIU) (PIU) (SGG) (SGG)
                 (SGU) (PIG) (PIG) (DLTG) (DLTG) (PIU) (PIU) (SGU)
                 (SGG) (PIG) (PIG) (SGU) (DLTU) (DLTU) (SGG) (PIU)
                 (PIU) (DLTG) (DLTG) (SGU) (SGG) (PIU) (PIU) (PIG)
                 (PIG) (PHIU) (PHIU) (SGU) (DLTG) (DLTG) (PIG)
                 (PIG) (DLTU) (DLTU) (SGG) (PIU) (PIU) (SGG) (PIG)
                 (PIG) (SGU) (PIU) (PIU) (SGG) (PHIG) (PHIG) (PHIU)
                 (PHIU) (DLTG) (DLTG) (SGU) (SGG) (DLTU) (DLTU)
                 (DLTG) (DLTG) (SGU) (PIG) (PIG) (PIU) (PIU) (DLTU)
                 (DLTU) (SGU) (SGG) (PIU) (PIU) (PIG) (PIG) (?A)
                 (?A) (SGU) (PHIG) (PHIG) (SGG) (PIU) (PIU) (DLTG)
                 (DLTG) (PIG) (PIG) (PHIU) (PHIU) (DLTU) (DLTU)
                 (DLTG) (DLTG) (SGG) (SGU) (PIU) (PIU) (SGG) (PIG)
                 (PIG) (SGU) (?B) (?B) (?A) (?A) (PHIU) (PHIU)
                 (PHIG) (PHIG) (DLTU) (DLTU) (PIG) (PIG) (PIU)
                 (PIU) (DLTG) (DLTG) (SGG) (PIU) (PIU) (SGU) (PIG)
                 (PIG) (SGU) (SGG) (PHIG) (PHIG) (PHIU) (PHIU)
                 (DLTG) (DLTG) (DLTU) (DLTU) (PIG) (PIG) (PIU)
                 (PIU) (DLTU) (DLTU) (DLTG) (DLTG) (SGU) (SGG)
                 (PIU) (PIU) (SGG) (PIG) (PIG) (SGU) (SGG) (SGU)
                 (SGG)
 The electronic state is 1-SGG.
 Alpha  occ. eigenvalues --  -19.23153 -19.23152 -10.40442  -1.12773  -1.08906
 Alpha  occ. eigenvalues --   -0.58967  -0.52599  -0.49595  -0.49595  -0.38005
 Alpha  occ. eigenvalues --   -0.38005
 Alpha virt. eigenvalues --   -0.03826  -0.03826  -0.01497   0.15807   0.18450
 Alpha virt. eigenvalues --    0.18450   0.19379   0.32752   0.37292   0.38694
 Alpha virt. eigenvalues --    0.38694   0.41204   0.41204   0.55418   0.55418
 Alpha virt. eigenvalues --    0.65851   0.74205   0.74639   0.74639   0.89223
 Alpha virt. eigenvalues --    0.96433   0.96433   1.04053   1.17587   1.17587
 Alpha virt. eigenvalues --    1.19953   1.19953   1.23759   1.31004   1.40710
 Alpha virt. eigenvalues --    1.40710   1.46329   1.46329   1.60237   1.60237
 Alpha virt. eigenvalues --    1.66763   1.72218   1.72218   1.95773   1.95773
 Alpha virt. eigenvalues --    1.97744   1.97744   2.15550   2.20982   2.20982
 Alpha virt. eigenvalues --    2.52932   2.66998   2.66998   2.80951   2.84159
 Alpha virt. eigenvalues --    2.84159   2.96582   3.00129   3.00129   3.16372
 Alpha virt. eigenvalues --    3.16372   3.26494   3.26494   3.47268   3.56221
 Alpha virt. eigenvalues --    3.62398   3.62398   3.80323   3.80323   3.80660
 Alpha virt. eigenvalues --    3.88760   3.88760   4.00077   4.00077   4.04402
 Alpha virt. eigenvalues --    4.04402   4.10546   4.16325   4.35906   4.35906
 Alpha virt. eigenvalues --    4.50398   4.50398   4.69260   4.69261   4.72401
 Alpha virt. eigenvalues --    4.85696   4.85696   5.47045   5.52894   5.52894
 Alpha virt. eigenvalues --    5.57697   5.57697   5.61218   5.61218   5.76889
 Alpha virt. eigenvalues --    5.76889   5.80671   5.80671   6.01917   6.01917
 Alpha virt. eigenvalues --    6.03130   6.29400   6.44554   6.44554   7.64950
 Alpha virt. eigenvalues --    7.70751   7.70751   8.09353   8.78975   8.78975
 Alpha virt. eigenvalues --    8.79971   8.79971   8.80812   8.80812   9.04416
 Alpha virt. eigenvalues --    9.04416   9.18917   9.18917   9.86399   9.86399
 Alpha virt. eigenvalues --    9.94040   9.94040  10.09299  10.09299  10.09960
 Alpha virt. eigenvalues --   10.34826  10.34826  10.40772  10.41749  10.41749
 Alpha virt. eigenvalues --   10.71458  10.73344  10.87323  10.87323  10.87853
 Alpha virt. eigenvalues --   10.87853  11.13462  11.13462  11.29695  11.29695
 Alpha virt. eigenvalues --   11.70014  11.70014  11.71724  11.71724  11.84178
 Alpha virt. eigenvalues --   11.84178  12.00281  12.00281  12.01166  12.71335
 Alpha virt. eigenvalues --   12.73459  12.73459  13.51667  14.09678  14.09678
 Alpha virt. eigenvalues --   14.54681  23.21233  40.77693  41.01079
          Condensed to atoms (all electrons):
               1          2          3
     1  C    3.981065   0.701538   0.701538
     2  O    0.701538   7.659023  -0.052631
     3  O    0.701538  -0.052631   7.659023
 Mulliken charges:
               1
     1  C    0.615859
     2  O   -0.307929
     3  O   -0.307929
 Sum of Mulliken charges =  -0.00000
 Mulliken charges with hydrogens summed into heavy atoms:
               1
     1  C    0.615859
     2  O   -0.307929
     3  O   -0.307929
 Electronic spatial extent (au):  <R**2>=            127.6825
 Charge=             -0.0000 electrons
 Dipole moment (field-independent basis, Debye):
    X=             -0.0000    Y=              0.0000    Z=              0.0000  Tot=              0.0000
 Quadrupole moment (field-independent basis, Debye-Ang):
   XX=            -15.2717   YY=            -15.2717   ZZ=            -19.4946
   XY=              0.0000   XZ=              0.0000   YZ=             -0.0000
 Traceless Quadrupole moment (field-independent basis, Debye-Ang):
   XX=              1.4076   YY=              1.4076   ZZ=             -2.8153
   XY=              0.0000   XZ=              0.0000   YZ=             -0.0000
 Octapole moment (field-independent basis, Debye-Ang**2):
  XXX=             -0.0000  YYY=              0.0000  ZZZ=             -0.0000  XYY=             -0.0000
  XXY=              0.0000  XXZ=             -0.0000  XZZ=             -0.0000  YZZ=              0.0000
  YYZ=             -0.0000  XYZ=             -0.0000
 Hexadecapole moment (field-independent basis, Debye-Ang**3):
 XXXX=            -12.5740 YYYY=            -12.5740 ZZZZ=           -117.5171 XXXY=              0.0000
 XXXZ=              0.0000 YYYX=              0.0000 YYYZ=             -0.0000 ZZZX=              0.0000
 ZZZY=             -0.0000 XXYY=             -4.1913 XXZZ=            -21.6711 YYZZ=            -21.6711
 XXYZ=             -0.0000 YYXZ=              0.0000 ZZXY=              0.0000
 N-N= 5.382603542921D+01 E-N=-5.512135477453D+02  KE= 1.871944108428D+02
 Symmetry AG   KE= 1.009465425962D+02
 Symmetry B1G  KE= 1.240082341471D-30
 Symmetry B2G  KE= 4.913934910264D+00
 Symmetry B3G  KE= 4.913934910264D+00
 Symmetry AU   KE= 1.070642540800D-30
 Symmetry B1U  KE= 6.908336358823D+01
 Symmetry B2U  KE= 3.668317418923D+00
 Symmetry B3U  KE= 3.668317418923D+00
 Calling FoFJK, ICntrl=      2127 FMM=F ISym2X=1 I1Cent= 0 IOpClX= 0 NMat=1 NMatS=1 NMatT=0.
 ***** Axes restored to original set *****
 -------------------------------------------------------------------
 Center     Atomic                   Forces (Hartrees/Bohr)
 Number     Number              X              Y              Z
 -------------------------------------------------------------------
      1        6          -0.000000000    0.000000000   -0.000000000
      2        8          -0.130237203    0.078811309   -0.000000000
      3        8           0.130237203   -0.078811309    0.000000000
 -------------------------------------------------------------------
 Cartesian Forces:  Max     0.130237203 RMS     0.071760329

 GradGradGradGradGradGradGradGradGradGradGradGradGradGradGradGradGradGrad
 Berny optimization.
 FormGI is forming the generalized inverse of G from B-inverse, IUseBI=4.
 Internal  Forces:  Max     0.152226645 RMS     0.107640493
 Search for a local minimum.
 Step number   1 out of a maximum of   20
 All quantities printed in internal units (Hartrees-Bohrs-Radians)
 Mixed Optimization -- RFO/linear search
 Second derivative matrix not updated -- first step.
 The second derivative matrix:
                          R1        R2        A1        A2
           R1           0.80209
           R2           0.00000   0.80209
           A1           0.00000   0.00000   0.03565
           A2           0.00000   0.00000   0.00000   0.03565
 ITU=  0
     Eigenvalues ---    0.03565   0.03565   0.80209   0.80209
 RFO step:  Lambda=-5.41287137D-02 EMin= 3.56487692D-02
 Linear search not attempted -- first point.
 Iteration  1 RMS(Cart)=  0.12571644 RMS(Int)=  0.00000000
 Iteration  2 RMS(Cart)=  0.00000000 RMS(Int)=  0.00000000
 ClnCor:  largest displacement from symmetrization is 7.81D-13 for atom     1.
 Variable       Old X    -DE/DX   Delta X   Delta X   Delta X     New X
                                 (Linear)    (Quad)   (Total)
    R1        2.37803  -0.15223   0.00000  -0.17779  -0.17779   2.20024
    R2        2.37803  -0.15223   0.00000  -0.17779  -0.17779   2.20024
    A1        3.14159   0.00000   0.00000   0.00000  -0.00000   3.14159
    A2        3.14159  -0.00000   0.00000  -0.00000   0.00000   3.14159
         Item               Value     Threshold  Converged?
 Maximum Force            0.152227     0.000450     NO 
 RMS     Force            0.107640     0.000300     NO 
 Maximum Displacement     0.152108     0.001800     NO 
 RMS     Displacement     0.125716     0.001200     NO 
 Predicted change in Energy=-2.877533D-02
 GradGradGradGradGradGradGradGradGradGradGradGradGradGradGradGradGradGrad

                          Input orientation:                          
 ---------------------------------------------------------------------
 Center     Atomic      Atomic             Coordinates (Angstroms)
 Number     Number       Type             X           Y           Z
 ---------------------------------------------------------------------
      1          6           0       -3.372823    0.780260   -0.000000
      2          8           0       -2.376693    0.177465    0.000000
      3          8           0       -4.368952    1.383054   -0.000000
 ---------------------------------------------------------------------
                    Distance matrix (angstroms):
                    1          2          3
     1  C    0.000000
     2  O    1.164318   0.000000
     3  O    1.164318   2.328635   0.000000
 Stoichiometry    CO2
 Framework group  D*H[O(C),C*(O.O)]
 Deg. of freedom     1
 Full point group                 D*H     NOp   8
 Omega: Change in point group or standard orientation.

 Old FWG=D*H  [C*(O1.O1),X(C1)]
 New FWG=D*H  [O(C1),C*(O1.O1)]
 Largest Abelian subgroup         D2H     NOp   8
 Largest concise Abelian subgroup C2      NOp   2
                         Standard orientation:                         
 ---------------------------------------------------------------------
 Center     Atomic      Atomic             Coordinates (Angstroms)
 Number     Number       Type             X           Y           Z
 ---------------------------------------------------------------------
      1          6           0        0.000000    0.000000    0.000000
      2          8           0        0.000000   -0.000000    1.164318
      3          8           0        0.000000   -0.000000   -1.164318
 ---------------------------------------------------------------------
 Rotational constants (GHZ):           0.0000000          11.6536594          11.6536594
 Standard basis: CC-pVQZ (5D, 7F)
 There are    50 symmetry adapted cartesian basis functions of AG  symmetry.
 There are    14 symmetry adapted cartesian basis functions of B1G symmetry.
 There are    22 symmetry adapted cartesian basis functions of B2G symmetry.
 There are    22 symmetry adapted cartesian basis functions of B3G symmetry.
 There are    10 symmetry adapted cartesian basis functions of AU  symmetry.
 There are    40 symmetry adapted cartesian basis functions of B1U symmetry.
 There are    26 symmetry adapted cartesian basis functions of B2U symmetry.
 There are    26 symmetry adapted cartesian basis functions of B3U symmetry.
 There are    36 symmetry adapted basis functions of AG  symmetry.
 There are    12 symmetry adapted basis functions of B1G symmetry.
 There are    18 symmetry adapted basis functions of B2G symmetry.
 There are    18 symmetry adapted basis functions of B3G symmetry.
 There are     9 symmetry adapted basis functions of AU  symmetry.
 There are    30 symmetry adapted basis functions of B1U symmetry.
 There are    21 symmetry adapted basis functions of B2U symmetry.
 There are    21 symmetry adapted basis functions of B3U symmetry.
   165 basis functions,   267 primitive gaussians,   210 cartesian basis functions
    11 alpha electrons       11 beta electrons
       nuclear repulsion energy        58.1754330577 Hartrees.
 NAtoms=    3 NActive=    3 NUniq=    2 SFac= 2.25D+00 NAtFMM=   60 NAOKFM=F Big=F
 Integral buffers will be    131072 words long.
 Raffenetti 2 integral format.
 Two-electron integral symmetry is turned on.
 One-electron integrals computed using PRISM.
 NBasis=   165 RedAO= T EigKep=  3.42D-04  NBF=    36    12    18    18     9    30    21    21
 NBsUse=   165 1.00D-06 EigRej= -1.00D+00 NBFU=    36    12    18    18     9    30    21    21
 Initial guess from the checkpoint file:  "/home/turki/random_projects/basis_set/Gau-53459.chk"
 B after Tr=    -0.000000   -0.000000   -0.000000
         Rot=    1.000000   -0.000000   -0.000000    0.000000 Ang=   0.00 deg.
 Initial guess orbital symmetries:
       Occupied  (SGU) (SGG) (SGG) (SGG) (SGU) (SGG) (SGU) (PIU)
                 (PIU) (PIG) (PIG)
       Virtual   (PIU) (PIU) (SGG) (SGU) (PIU) (PIU) (SGG) (SGG)
                 (SGU) (PIG) (PIG) (DLTG) (DLTG) (PIU) (PIU) (SGU)
                 (SGG) (PIG) (PIG) (SGU) (DLTU) (DLTU) (SGG) (PIU)
                 (PIU) (DLTG) (DLTG) (SGU) (SGG) (PIU) (PIU) (PIG)
                 (PIG) (PHIU) (PHIU) (SGU) (DLTG) (DLTG) (PIG)
                 (PIG) (DLTU) (DLTU) (SGG) (PIU) (PIU) (SGG) (PIG)
                 (PIG) (SGU) (PIU) (PIU) (SGG) (PHIG) (PHIG) (PHIU)
                 (PHIU) (DLTG) (DLTG) (SGU) (SGG) (DLTU) (DLTU)
                 (DLTG) (DLTG) (SGU) (PIG) (PIG) (PIU) (PIU) (DLTU)
                 (DLTU) (SGU) (SGG) (PIU) (PIU) (PIG) (PIG) (?A)
                 (?A) (SGU) (PHIG) (PHIG) (SGG) (PIU) (PIU) (DLTG)
                 (DLTG) (PIG) (PIG) (PHIU) (PHIU) (DLTU) (DLTU)
                 (DLTG) (DLTG) (SGG) (SGU) (PIU) (PIU) (SGG) (PIG)
                 (PIG) (SGU) (?B) (?B) (?A) (?A) (PHIU) (PHIU)
                 (PHIG) (PHIG) (DLTU) (DLTU) (PIG) (PIG) (PIU)
                 (PIU) (DLTG) (DLTG) (SGG) (PIU) (PIU) (SGU) (PIG)
                 (PIG) (SGU) (SGG) (PHIG) (PHIG) (PHIU) (PHIU)
                 (DLTG) (DLTG) (DLTU) (DLTU) (PIG) (PIG) (PIU)
                 (PIU) (DLTU) (DLTU) (DLTG) (DLTG) (SGU) (SGG)
                 (PIU) (PIU) (SGG) (PIG) (PIG) (SGU) (SGG) (SGU)
                 (SGG)
 ExpMin= 1.01D-01 ExpMax= 6.14D+04 ExpMxC= 5.91D+02 IAcc=3 IRadAn=         5 AccDes= 0.00D+00
 Harris functional with IExCor=  402 and IRadAn=       5 diagonalized for initial guess.
 HarFok:  IExCor=  402 AccDes= 0.00D+00 IRadAn=         5 IDoV= 1 UseB2=F ITyADJ=14
 ICtDFT=  3500011 ScaDFX=  1.000000  1.000000  1.000000  1.000000
 FoFCou: FMM=F IPFlag=           0 FMFlag=      100000 FMFlg1=           0
         NFxFlg=           0 DoJE=T BraDBF=F KetDBF=T FulRan=T
         wScrn=  0.000000 ICntrl=       500 IOpCl=  0 I1Cent=   200000004 NGrid=           0
         NMat0=    1 NMatS0=      1 NMatT0=    0 NMatD0=    1 NMtDS0=    0 NMtDT0=    0
 Petite list used in FoFCou.
 Keep R1 ints in memory in symmetry-blocked form, NReq=107461291.
 Requested convergence on RMS density matrix=1.00D-08 within 128 cycles.
 Requested convergence on MAX density matrix=1.00D-06.
 Requested convergence on             energy=1.00D-06.
 No special actions if energy rises.
 Integral accuracy reduced to 1.0D-05 until final iterations.
 Initial convergence to 1.0D-05 achieved.  Increase integral accuracy.
 SCF Done:  E(RB3LYP) =  -188.676497672     A.U. after   10 cycles
            NFock= 10  Conv=0.22D-08     -V/T= 2.0042
 Calling FoFJK, ICntrl=      2127 FMM=F ISym2X=1 I1Cent= 0 IOpClX= 0 NMat=1 NMatS=1 NMatT=0.
 ***** Axes restored to original set *****
 -------------------------------------------------------------------
 Center     Atomic                   Forces (Hartrees/Bohr)
 Number     Number              X              Y              Z
 -------------------------------------------------------------------
      1        6          -0.000000000    0.000000000   -0.000000000
      2        8          -0.009998571    0.006050502    0.000000000
      3        8           0.009998571   -0.006050502    0.000000000
 -------------------------------------------------------------------
 Cartesian Forces:  Max     0.009998571 RMS     0.005509184

 GradGradGradGradGradGradGradGradGradGradGradGradGradGradGradGradGradGrad
 Berny optimization.
 Using GEDIIS/GDIIS optimizer.
 Internal  Forces:  Max     0.011686745 RMS     0.008263777
 Search for a local minimum.
 Step number   2 out of a maximum of   20
 All quantities printed in internal units (Hartrees-Bohrs-Radians)
 Mixed Optimization -- RFO/linear search
 Update second derivatives using D2CorX and points    1    2
 DE= -3.21D-02 DEPred=-2.88D-02 R= 1.11D+00
 TightC=F SS=  1.41D+00  RLast= 2.51D-01 DXNew= 5.0454D-01 7.5430D-01
 Trust test= 1.11D+00 RLast= 2.51D-01 DXMaxT set to 5.05D-01
 The second derivative matrix:
                          R1        R2        A1        A2
           R1           0.79629
           R2          -0.00580   0.79629
           A1           0.00000   0.00000   0.03565
           A2           0.00000   0.00000  -0.00000   0.03565
 ITU=  1  0
 Use linear search instead of GDIIS.
     Eigenvalues ---    0.03565   0.03565   0.79048   0.80209
 RFO step:  Lambda= 0.00000000D+00 EMin= 3.56487692D-02
 Quartic linear search produced a step of  0.05943.
 Iteration  1 RMS(Cart)=  0.00747167 RMS(Int)=  0.00000001
 Iteration  2 RMS(Cart)=  0.00000000 RMS(Int)=  0.00000000
 ClnCor:  largest displacement from symmetrization is 9.90D-09 for atom     1.
 Variable       Old X    -DE/DX   Delta X   Delta X   Delta X     New X
                                 (Linear)    (Quad)   (Total)
    R1        2.20024  -0.01169  -0.01057  -0.00000  -0.01057   2.18967
    R2        2.20024  -0.01169  -0.01057   0.00000  -0.01057   2.18967
    A1        3.14159   0.00000   0.00000  -0.00000   0.00000   3.14159
    A2        3.14159  -0.00000   0.00000  -0.00000   0.00000   3.14159
         Item               Value     Threshold  Converged?
 Maximum Force            0.011687     0.000450     NO 
 RMS     Force            0.008264     0.000300     NO 
 Maximum Displacement     0.009040     0.001800     NO 
 RMS     Displacement     0.007472     0.001200     NO 
 Predicted change in Energy=-1.587181D-04
 GradGradGradGradGradGradGradGradGradGradGradGradGradGradGradGradGradGrad

                          Input orientation:                          
 ---------------------------------------------------------------------
 Center     Atomic      Atomic             Coordinates (Angstroms)
 Number     Number       Type             X           Y           Z
 ---------------------------------------------------------------------
      1          6           0       -3.372823    0.780260   -0.000000
      2          8           0       -2.381477    0.180360    0.000000
      3          8           0       -4.364169    1.380159   -0.000000
 ---------------------------------------------------------------------
                    Distance matrix (angstroms):
                    1          2          3
     1  C    0.000000
     2  O    1.158726   0.000000
     3  O    1.158726   2.317452   0.000000
 Stoichiometry    CO2
 Framework group  D*H[O(C),C*(O.O)]
 Deg. of freedom     1
 Full point group                 D*H     NOp   8
 Largest Abelian subgroup         D2H     NOp   8
 Largest concise Abelian subgroup C2      NOp   2
                         Standard orientation:                         
 ---------------------------------------------------------------------
 Center     Atomic      Atomic             Coordinates (Angstroms)
 Number     Number       Type             X           Y           Z
 ---------------------------------------------------------------------
      1          6           0        0.000000    0.000000    0.000000
      2          8           0       -0.000000    0.000000    1.158726
      3          8           0        0.000000    0.000000   -1.158726
 ---------------------------------------------------------------------
 Rotational constants (GHZ):           0.0000000          11.7664031          11.7664031
 Standard basis: CC-pVQZ (5D, 7F)
 There are    50 symmetry adapted cartesian basis functions of AG  symmetry.
 There are    14 symmetry adapted cartesian basis functions of B1G symmetry.
 There are    22 symmetry adapted cartesian basis functions of B2G symmetry.
 There are    22 symmetry adapted cartesian basis functions of B3G symmetry.
 There are    10 symmetry adapted cartesian basis functions of AU  symmetry.
 There are    40 symmetry adapted cartesian basis functions of B1U symmetry.
 There are    26 symmetry adapted cartesian basis functions of B2U symmetry.
 There are    26 symmetry adapted cartesian basis functions of B3U symmetry.
 There are    36 symmetry adapted basis functions of AG  symmetry.
 There are    12 symmetry adapted basis functions of B1G symmetry.
 There are    18 symmetry adapted basis functions of B2G symmetry.
 There are    18 symmetry adapted basis functions of B3G symmetry.
 There are     9 symmetry adapted basis functions of AU  symmetry.
 There are    30 symmetry adapted basis functions of B1U symmetry.
 There are    21 symmetry adapted basis functions of B2U symmetry.
 There are    21 symmetry adapted basis functions of B3U symmetry.
   165 basis functions,   267 primitive gaussians,   210 cartesian basis functions
    11 alpha electrons       11 beta electrons
       nuclear repulsion energy        58.4561656826 Hartrees.
 NAtoms=    3 NActive=    3 NUniq=    2 SFac= 2.25D+00 NAtFMM=   60 NAOKFM=F Big=F
 Integral buffers will be    131072 words long.
 Raffenetti 2 integral format.
 Two-electron integral symmetry is turned on.
 One-electron integrals computed using PRISM.
 NBasis=   165 RedAO= T EigKep=  3.37D-04  NBF=    36    12    18    18     9    30    21    21
 NBsUse=   165 1.00D-06 EigRej= -1.00D+00 NBFU=    36    12    18    18     9    30    21    21
 Initial guess from the checkpoint file:  "/home/turki/random_projects/basis_set/Gau-53459.chk"
 B after Tr=     0.000000    0.000000    0.000000
         Rot=    0.992129   -0.000000    0.000000   -0.125221 Ang= -14.39 deg.
 Initial guess orbital symmetries:
       Occupied  (SGU) (SGG) (SGG) (SGG) (SGU) (SGG) (SGU) (PIU)
                 (PIU) (PIG) (PIG)
       Virtual   (SGG) (PIU) (PIU) (SGU) (PIU) (PIU) (SGG) (SGG)
                 (PIG) (PIG) (SGU) (DLTG) (DLTG) (PIU) (PIU) (SGG)
                 (PIG) (PIG) (SGU) (SGU) (DLTU) (DLTU) (SGG) (PIU)
                 (PIU) (SGU) (DLTG) (DLTG) (SGG) (PIG) (PIG) (PIU)
                 (PIU) (PHIU) (PHIU) (SGU) (DLTG) (DLTG) (PIG)
                 (PIG) (DLTU) (DLTU) (SGG) (PIU) (PIU) (SGU) (PIG)
                 (PIG) (SGG) (PIU) (PIU) (SGG) (PHIG) (PHIG) (PHIU)
                 (PHIU) (DLTG) (DLTG) (SGU) (SGG) (DLTU) (DLTU)
                 (PIG) (PIG) (DLTG) (DLTG) (SGU) (PIU) (PIU) (SGU)
                 (DLTU) (DLTU) (PIU) (PIU) (SGG) (?A) (?A) (PIG)
                 (PIG) (PHIG) (PHIG) (SGU) (SGG) (DLTG) (DLTG)
                 (PIG) (PIG) (PIU) (PIU) (PHIU) (PHIU) (DLTU) (DLTU)
                 (DLTG) (DLTG) (SGG) (SGU) (PIU) (PIU) (PIG) (PIG)
                 (SGG) (SGU) (?B) (?B) (?A) (?A) (PHIU) (PHIU)
                 (PHIG) (PHIG) (DLTU) (DLTU) (PIU) (PIU) (SGU)
                 (PIG) (PIG) (PIG) (PIG) (DLTG) (DLTG) (SGG) (PIU)
                 (PIU) (PHIG) (PHIG) (PHIU) (PHIU) (SGU) (SGG)
                 (DLTG) (DLTG) (DLTU) (DLTU) (PIU) (PIU) (DLTU)
                 (DLTU) (PIG) (PIG) (DLTG) (DLTG) (SGU) (SGG) (PIU)
                 (PIU) (SGG) (PIG) (PIG) (SGU) (SGG) (SGU) (SGG)
 Keep R1 ints in memory in symmetry-blocked form, NReq=107461339.
 Requested convergence on RMS density matrix=1.00D-08 within 128 cycles.
 Requested convergence on MAX density matrix=1.00D-06.
 Requested convergence on             energy=1.00D-06.
 No special actions if energy rises.
 An orbital has undefined symmetry, so N**3 symmetry is turned off.
 SCF Done:  E(RB3LYP) =  -188.676620667     A.U. after    7 cycles
            NFock=  7  Conv=0.90D-09     -V/T= 2.0039
 Calling FoFJK, ICntrl=      2127 FMM=F ISym2X=1 I1Cent= 0 IOpClX= 0 NMat=1 NMatS=1 NMatT=0.
 ***** Axes restored to original set *****
 -------------------------------------------------------------------
 Center     Atomic                   Forces (Hartrees/Bohr)
 Number     Number              X              Y              Z
 -------------------------------------------------------------------
      1        6           0.000000000    0.000000000    0.000000000
      2        8           0.000105846   -0.000064051   -0.000000000
      3        8          -0.000105846    0.000064051   -0.000000000
 -------------------------------------------------------------------
 Cartesian Forces:  Max     0.000105846 RMS     0.000058321

 GradGradGradGradGradGradGradGradGradGradGradGradGradGradGradGradGradGrad
 Berny optimization.
 Using GEDIIS/GDIIS optimizer.
 Internal  Forces:  Max     0.000123717 RMS     0.000087481
 Search for a local minimum.
 Step number   3 out of a maximum of   20
 All quantities printed in internal units (Hartrees-Bohrs-Radians)
 Mixed Optimization -- En-DIIS/RFO-DIIS
 Update second derivatives using D2CorX and points    1    2    3
 DE= -1.23D-04 DEPred=-1.59D-04 R= 7.75D-01
 TightC=F SS=  1.41D+00  RLast= 1.49D-02 DXNew= 8.4853D-01 4.4830D-02
 Trust test= 7.75D-01 RLast= 1.49D-02 DXMaxT set to 5.05D-01
 The second derivative matrix:
                          R1        R2        A1        A2
           R1           0.95991
           R2           0.15782   0.95991
           A1          -0.00000  -0.00000   0.03565
           A2           0.00000   0.00000  -0.00000   0.03565
 ITU=  1  1  0
 Use linear search instead of GDIIS.
     Eigenvalues ---    0.03565   0.03565   0.80209   1.11772
 RFO step:  Lambda= 0.00000000D+00 EMin= 3.56487692D-02
 Quartic linear search produced a step of -0.01028.
 Iteration  1 RMS(Cart)=  0.00007678 RMS(Int)=  0.00000000
 Iteration  2 RMS(Cart)=  0.00000000 RMS(Int)=  0.00000000
 ClnCor:  largest displacement from symmetrization is 8.15D-13 for atom     1.
 Variable       Old X    -DE/DX   Delta X   Delta X   Delta X     New X
                                 (Linear)    (Quad)   (Total)
    R1        2.18967   0.00012   0.00011   0.00000   0.00011   2.18978
    R2        2.18967   0.00012   0.00011  -0.00000   0.00011   2.18978
    A1        3.14159  -0.00000   0.00000  -0.00000   0.00000   3.14159
    A2        3.14159   0.00000   0.00000   0.00000   0.00000   3.14159
         Item               Value     Threshold  Converged?
 Maximum Force            0.000124     0.000450     YES
 RMS     Force            0.000087     0.000300     YES
 Maximum Displacement     0.000093     0.001800     YES
 RMS     Displacement     0.000077     0.001200     YES
 Predicted change in Energy=-1.368889D-08
 Optimization completed.
    -- Stationary point found.
                           ----------------------------
                           !   Optimized Parameters   !
                           ! (Angstroms and Degrees)  !
 --------------------------                            --------------------------
 ! Name  Definition              Value          Derivative Info.                !
 --------------------------------------------------------------------------------
 ! R1    R(1,2)                  1.1587         -DE/DX =    0.0001              !
 ! R2    R(1,3)                  1.1587         -DE/DX =    0.0001              !
 ! A1    L(2,1,3,-3,-1)        180.0            -DE/DX =    0.0                 !
 ! A2    L(2,1,3,-2,-2)        180.0            -DE/DX =    0.0                 !
 --------------------------------------------------------------------------------
 GradGradGradGradGradGradGradGradGradGradGradGradGradGradGradGradGradGrad

                          Input orientation:                          
 ---------------------------------------------------------------------
 Center     Atomic      Atomic             Coordinates (Angstroms)
 Number     Number       Type             X           Y           Z
 ---------------------------------------------------------------------
      1          6           0       -3.372823    0.780260   -0.000000
      2          8           0       -2.381477    0.180360    0.000000
      3          8           0       -4.364169    1.380159   -0.000000
 ---------------------------------------------------------------------
                    Distance matrix (angstroms):
                    1          2          3
     1  C    0.000000
     2  O    1.158726   0.000000
     3  O    1.158726   2.317452   0.000000
 Stoichiometry    CO2
 Framework group  D*H[O(C),C*(O.O)]
 Deg. of freedom     1
 Full point group                 D*H     NOp   8
 Largest Abelian subgroup         D2H     NOp   8
 Largest concise Abelian subgroup C2      NOp   2
                         Standard orientation:                         
 ---------------------------------------------------------------------
 Center     Atomic      Atomic             Coordinates (Angstroms)
 Number     Number       Type             X           Y           Z
 ---------------------------------------------------------------------
      1          6           0        0.000000    0.000000    0.000000
      2          8           0       -0.000000    0.000000    1.158726
      3          8           0        0.000000   -0.000000   -1.158726
 ---------------------------------------------------------------------
 Rotational constants (GHZ):           0.0000000          11.7664031          11.7664031

 **********************************************************************

            Population analysis using the SCF Density.

 **********************************************************************

 Orbital symmetries:
       Occupied  (SGU) (SGG) (SGG) (SGG) (SGU) (SGG) (SGU) (PIU)
                 (PIU) (PIG) (PIG)
       Virtual   (SGG) (PIU) (PIU) (SGU) (PIU) (PIU) (SGG) (SGG)
                 (PIG) (PIG) (SGU) (DLTG) (DLTG) (PIU) (PIU) (SGG)
                 (PIG) (PIG) (SGU) (SGU) (DLTU) (DLTU) (SGG) (PIU)
                 (PIU) (SGU) (DLTG) (DLTG) (SGG) (PIG) (PIG) (PIU)
                 (PIU) (PHIU) (PHIU) (SGU) (DLTG) (DLTG) (PIG)
                 (PIG) (DLTU) (DLTU) (SGG) (PIU) (PIU) (SGU) (PIG)
                 (PIG) (SGG) (PIU) (PIU) (SGG) (PHIG) (PHIG) (PHIU)
                 (PHIU) (DLTG) (DLTG) (SGU) (SGG) (DLTU) (DLTU)
                 (PIG) (PIG) (DLTG) (DLTG) (SGU) (PIU) (PIU) (SGU)
                 (DLTU) (DLTU) (PIU) (PIU) (SGG) (?A) (?A) (PIG)
                 (PIG) (PHIG) (PHIG) (SGU) (SGG) (DLTG) (DLTG)
                 (PIG) (PIG) (PIU) (PIU) (PHIU) (PHIU) (DLTU) (DLTU)
                 (DLTG) (DLTG) (SGG) (SGU) (PIU) (PIU) (PIG) (PIG)
                 (SGG) (SGU) (?B) (?B) (?A) (?A) (PHIU) (PHIU)
                 (PHIG) (PHIG) (DLTU) (DLTU) (PIU) (PIU) (SGU)
                 (PIG) (PIG) (PIG) (PIG) (DLTG) (DLTG) (SGG) (PIU)
                 (PIU) (PHIG) (PHIG) (PHIU) (PHIU) (SGU) (SGG)
                 (DLTG) (DLTG) (DLTU) (DLTU) (PIU) (PIU) (DLTU)
                 (DLTU) (PIG) (PIG) (DLTG) (DLTG) (SGU) (SGG) (PIU)
                 (PIU) (SGG) (PIG) (PIG) (SGU) (SGG) (SGU) (SGG)
 The electronic state is 1-SGG.
 Alpha  occ. eigenvalues --  -19.21083 -19.21083 -10.36487  -1.17144  -1.13182
 Alpha  occ. eigenvalues --   -0.57233  -0.53059  -0.52755  -0.52755  -0.38321
 Alpha  occ. eigenvalues --   -0.38321
 Alpha virt. eigenvalues --    0.01370   0.02415   0.02415   0.16151   0.17731
 Alpha virt. eigenvalues --    0.17731   0.26564   0.32989   0.37330   0.37330
 Alpha virt. eigenvalues --    0.38388   0.41076   0.41076   0.56608   0.56608
 Alpha virt. eigenvalues --    0.74732   0.81604   0.81604   0.86899   0.91534
 Alpha virt. eigenvalues --    0.97366   0.97366   1.07744   1.14248   1.14248
 Alpha virt. eigenvalues --    1.21201   1.24109   1.24109   1.27242   1.40294
 Alpha virt. eigenvalues --    1.40294   1.45958   1.45958   1.60197   1.60197
 Alpha virt. eigenvalues --    1.69820   1.72401   1.72401   2.03588   2.03588
 Alpha virt. eigenvalues --    2.04900   2.04900   2.17509   2.28503   2.28503
 Alpha virt. eigenvalues --    2.66859   2.82588   2.82588   2.83764   2.89193
 Alpha virt. eigenvalues --    2.89193   2.94993   2.99555   2.99555   3.21624
 Alpha virt. eigenvalues --    3.21624   3.40437   3.40437   3.52799   3.61448
 Alpha virt. eigenvalues --    3.64978   3.64978   3.75579   3.75579   3.81455
 Alpha virt. eigenvalues --    3.81455   3.86630   3.88158   3.88158   3.92651
 Alpha virt. eigenvalues --    4.21692   4.21692   4.38342   4.38342   4.42222
 Alpha virt. eigenvalues --    4.69479   4.69479   4.85664   4.85664   4.96307
 Alpha virt. eigenvalues --    4.96307   5.16069   5.24077   5.63862   5.63862
 Alpha virt. eigenvalues --    5.70864   5.70864   5.71486   5.71486   5.76908
 Alpha virt. eigenvalues --    5.76908   5.81075   5.81075   6.30684   6.30684
 Alpha virt. eigenvalues --    6.38209   6.52629   6.97012   6.97012   8.03258
 Alpha virt. eigenvalues --    8.03258   8.14837   8.67518   8.78465   8.78465
 Alpha virt. eigenvalues --    8.80993   8.80993   8.83702   8.83702   9.26185
 Alpha virt. eigenvalues --    9.26185   9.56227   9.56227   9.96385   9.96385
 Alpha virt. eigenvalues --    9.97742  10.08499  10.08499  10.13251  10.13251
 Alpha virt. eigenvalues --   10.55189  10.55189  10.60219  10.86373  10.86373
 Alpha virt. eigenvalues --   10.88786  10.88786  10.90655  10.90655  10.93700
 Alpha virt. eigenvalues --   10.96129  11.12331  11.12331  11.47711  11.47711
 Alpha virt. eigenvalues --   11.62958  11.62958  11.85204  11.85204  12.09100
 Alpha virt. eigenvalues --   12.09100  12.29871  12.29871  12.52609  12.70248
 Alpha virt. eigenvalues --   13.38128  13.38128  13.82248  14.90676  14.90676
 Alpha virt. eigenvalues --   15.75777  24.62476  40.94898  42.24999
          Condensed to atoms (all electrons):
               1          2          3
     1  C    3.888710   0.766191   0.766191
     2  O    0.766191   7.582630  -0.059367
     3  O    0.766191  -0.059367   7.582630
 Mulliken charges:
               1
     1  C    0.578908
     2  O   -0.289454
     3  O   -0.289454
 Sum of Mulliken charges =  -0.00000
 Mulliken charges with hydrogens summed into heavy atoms:
               1
     1  C    0.578908
     2  O   -0.289454
     3  O   -0.289454
 Electronic spatial extent (au):  <R**2>=            113.0251
 Charge=             -0.0000 electrons
 Dipole moment (field-independent basis, Debye):
    X=             -0.0000    Y=             -0.0000    Z=             -0.0000  Tot=              0.0000
 Quadrupole moment (field-independent basis, Debye-Ang):
   XX=            -14.7893   YY=            -14.7893   ZZ=            -19.2599
   XY=              0.0000   XZ=              0.0000   YZ=              0.0000
 Traceless Quadrupole moment (field-independent basis, Debye-Ang):
   XX=              1.4902   YY=              1.4902   ZZ=             -2.9804
   XY=              0.0000   XZ=              0.0000   YZ=              0.0000
 Octapole moment (field-independent basis, Debye-Ang**2):
  XXX=             -0.0000  YYY=             -0.0000  ZZZ=             -0.0000  XYY=             -0.0000
  XXY=             -0.0000  XXZ=             -0.0000  XZZ=             -0.0000  YZZ=             -0.0000
  YYZ=             -0.0000  XYZ=              0.0000
 Hexadecapole moment (field-independent basis, Debye-Ang**3):
 XXXX=            -11.7538 YYYY=            -11.7538 ZZZZ=           -102.6316 XXXY=              0.0000
 XXXZ=              0.0000 YYYX=              0.0000 YYYZ=              0.0000 ZZZX=              0.0000
 ZZZY=              0.0000 XXYY=             -3.9179 XXZZ=            -18.7507 YYZZ=            -18.7507
 XXYZ=              0.0000 YYXZ=              0.0000 ZZXY=              0.0000
 N-N= 5.845616568256D+01 E-N=-5.610590739362D+02  KE= 1.879396853457D+02
 Symmetry AG   KE= 1.012537990424D+02
 Symmetry B1G  KE= 3.675709760763D-29
 Symmetry B2G  KE= 4.960115785511D+00
 Symmetry B3G  KE= 4.960115785511D+00
 Symmetry AU   KE= 1.615981131093D-29
 Symmetry B1U  KE= 6.938027732140D+01
 Symmetry B2U  KE= 3.692688705412D+00
 Symmetry B3U  KE= 3.692688705412D+00
 1\1\GINC-SUBZERO\FOpt\RB3LYP\CC-pVQZ\C1O2\TURKI\08-Apr-2021\0\\# opt f
 req b3lyp/CC-PVQZ geom=connectivity\\Title Card Required\\0,1\C,-3.372
 8227973,0.7802597664,0.\O,-2.3814770168,0.1803600718,0.\O,-4.364168577
 8,1.380159461,0.\\Version=ES64L-G16RevB.01\State=1-SGG\HF=-188.6766207
 \RMSD=9.042e-10\RMSF=5.832e-05\Dipole=0.,0.,0.\Quadrupole=-1.3249683,0
 .2170308,1.1079375,1.4722406,0.,0.\PG=D*H [O(C1),C*(O1.O1)]\\@


 CHEMISTRY BEGAN BY SAYING IT WOULD CHANGE THE BASER
 METALS INTO GOLD.  BY NOT DOING THAT IT HAS DONE MUCH
 GREATER THINGS.  --  RALPH WALDO EMERSON
 Job cpu time:       0 days  0 hours  2 minutes 54.3 seconds.
 Elapsed time:       0 days  0 hours  0 minutes 15.5 seconds.
 File lengths (MBytes):  RWF=     19 Int=      0 D2E=      0 Chk=      3 Scr=      1
 Normal termination of Gaussian 16 at Thu Apr  8 15:47:14 2021.
 Link1:  Proceeding to internal job step number  2.
 -------------------------------------------------------------------
 #N Geom=AllCheck Guess=TCheck SCRF=Check GenChk RB3LYP/CC-pVQZ Freq
 -------------------------------------------------------------------
 1/10=4,29=7,30=1,38=1,40=1/1,3;
 2/12=2,40=1/2;
 3/5=16,6=2,11=2,14=-4,25=1,30=1,70=2,71=2,74=-5,116=1,140=1/1,2,3;
 4/5=101/1;
 5/5=2,38=6,98=1/2;
 8/6=4,10=90,11=11/1;
 11/6=1,8=1,9=11,15=111,16=1/1,2,10;
 10/6=1/2;
 6/7=2,8=2,9=2,10=2,28=1/1;
 7/8=1,10=1,25=1/1,2,3,16;
 1/10=4,30=1/3;
 99//99;
 Structure from the checkpoint file:  "/home/turki/random_projects/basis_set/Gau-53459.chk"
 -------------------
 Title Card Required
 -------------------
 Charge =  0 Multiplicity = 1
 Redundant internal coordinates found in file.  (old form).
 C,0,-3.3728227973,0.7802597664,0.
 O,0,-2.3814770168,0.1803600718,0.
 O,0,-4.3641685778,1.380159461,0.
 Recover connectivity data from disk.

 GradGradGradGradGradGradGradGradGradGradGradGradGradGradGradGradGradGrad
 Berny optimization.
 Initialization pass.
                           ----------------------------
                           !    Initial Parameters    !
                           ! (Angstroms and Degrees)  !
 --------------------------                            --------------------------
 ! Name  Definition              Value          Derivative Info.                !
 --------------------------------------------------------------------------------
 ! R1    R(1,2)                  1.1587         calculate D2E/DX2 analytically  !
 ! R2    R(1,3)                  1.1587         calculate D2E/DX2 analytically  !
 ! A1    L(2,1,3,-3,-1)        180.0            calculate D2E/DX2 analytically  !
 ! A2    L(2,1,3,-2,-2)        180.0            calculate D2E/DX2 analytically  !
 --------------------------------------------------------------------------------
 Trust Radius=3.00D-01 FncErr=1.00D-07 GrdErr=1.00D-07 EigMax=2.50D+02 EigMin=1.00D-04
 Number of steps in this run=      2 maximum allowed number of steps=      2.
 GradGradGradGradGradGradGradGradGradGradGradGradGradGradGradGradGradGrad

                          Input orientation:                          
 ---------------------------------------------------------------------
 Center     Atomic      Atomic             Coordinates (Angstroms)
 Number     Number       Type             X           Y           Z
 ---------------------------------------------------------------------
      1          6           0       -3.372823    0.780260   -0.000000
      2          8           0       -2.381477    0.180360    0.000000
      3          8           0       -4.364169    1.380159   -0.000000
 ---------------------------------------------------------------------
                    Distance matrix (angstroms):
                    1          2          3
     1  C    0.000000
     2  O    1.158726   0.000000
     3  O    1.158726   2.317452   0.000000
 Stoichiometry    CO2
 Framework group  D*H[O(C),C*(O.O)]
 Deg. of freedom     1
 Full point group                 D*H     NOp   8
 Largest Abelian subgroup         D2H     NOp   8
 Largest concise Abelian subgroup C2      NOp   2
                         Standard orientation:                         
 ---------------------------------------------------------------------
 Center     Atomic      Atomic             Coordinates (Angstroms)
 Number     Number       Type             X           Y           Z
 ---------------------------------------------------------------------
      1          6           0        0.000000    0.000000    0.000000
      2          8           0        0.000000    0.000000    1.158726
      3          8           0       -0.000000    0.000000   -1.158726
 ---------------------------------------------------------------------
 Rotational constants (GHZ):           0.0000000          11.7664031          11.7664031
 Standard basis: CC-pVQZ (5D, 7F)
 There are    50 symmetry adapted cartesian basis functions of AG  symmetry.
 There are    14 symmetry adapted cartesian basis functions of B1G symmetry.
 There are    22 symmetry adapted cartesian basis functions of B2G symmetry.
 There are    22 symmetry adapted cartesian basis functions of B3G symmetry.
 There are    10 symmetry adapted cartesian basis functions of AU  symmetry.
 There are    40 symmetry adapted cartesian basis functions of B1U symmetry.
 There are    26 symmetry adapted cartesian basis functions of B2U symmetry.
 There are    26 symmetry adapted cartesian basis functions of B3U symmetry.
 There are    36 symmetry adapted basis functions of AG  symmetry.
 There are    12 symmetry adapted basis functions of B1G symmetry.
 There are    18 symmetry adapted basis functions of B2G symmetry.
 There are    18 symmetry adapted basis functions of B3G symmetry.
 There are     9 symmetry adapted basis functions of AU  symmetry.
 There are    30 symmetry adapted basis functions of B1U symmetry.
 There are    21 symmetry adapted basis functions of B2U symmetry.
 There are    21 symmetry adapted basis functions of B3U symmetry.
   165 basis functions,   267 primitive gaussians,   210 cartesian basis functions
    11 alpha electrons       11 beta electrons
       nuclear repulsion energy        58.4561656826 Hartrees.
 NAtoms=    3 NActive=    3 NUniq=    2 SFac= 2.25D+00 NAtFMM=   60 NAOKFM=F Big=F
 Integral buffers will be    131072 words long.
 Raffenetti 2 integral format.
 Two-electron integral symmetry is turned on.
 One-electron integrals computed using PRISM.
 NBasis=   165 RedAO= T EigKep=  3.37D-04  NBF=    36    12    18    18     9    30    21    21
 NBsUse=   165 1.00D-06 EigRej= -1.00D+00 NBFU=    36    12    18    18     9    30    21    21
 Initial guess from the checkpoint file:  "/home/turki/random_projects/basis_set/Gau-53459.chk"
 B after Tr=    -0.000000   -0.000000   -0.000000
         Rot=    1.000000    0.000000   -0.000000   -0.000000 Ang=   0.00 deg.
 Initial guess orbital symmetries:
       Occupied  (SGU) (SGG) (SGG) (SGG) (SGU) (SGG) (SGU) (PIU)
                 (PIU) (PIG) (PIG)
       Virtual   (SGG) (PIU) (PIU) (SGU) (PIU) (PIU) (SGG) (SGG)
                 (PIG) (PIG) (SGU) (DLTG) (DLTG) (PIU) (PIU) (SGG)
                 (PIG) (PIG) (SGU) (SGU) (DLTU) (DLTU) (SGG) (PIU)
                 (PIU) (SGU) (DLTG) (DLTG) (SGG) (PIG) (PIG) (PIU)
                 (PIU) (PHIU) (PHIU) (SGU) (DLTG) (DLTG) (PIG)
                 (PIG) (DLTU) (DLTU) (SGG) (PIU) (PIU) (SGU) (PIG)
                 (PIG) (SGG) (PIU) (PIU) (SGG) (PHIG) (PHIG) (PHIU)
                 (PHIU) (DLTG) (DLTG) (SGU) (SGG) (DLTU) (DLTU)
                 (PIG) (PIG) (DLTG) (DLTG) (SGU) (PIU) (PIU) (SGU)
                 (DLTU) (DLTU) (PIU) (PIU) (SGG) (?A) (?A) (PIG)
                 (PIG) (PHIG) (PHIG) (SGU) (SGG) (DLTG) (DLTG)
                 (PIG) (PIG) (PIU) (PIU) (PHIU) (PHIU) (DLTU) (DLTU)
                 (DLTG) (DLTG) (SGG) (SGU) (PIU) (PIU) (PIG) (PIG)
                 (SGG) (SGU) (?B) (?B) (?A) (?A) (PHIU) (PHIU)
                 (PHIG) (PHIG) (DLTU) (DLTU) (PIU) (PIU) (SGU)
                 (PIG) (PIG) (PIG) (PIG) (DLTG) (DLTG) (SGG) (PIU)
                 (PIU) (PHIG) (PHIG) (PHIU) (PHIU) (SGU) (SGG)
                 (DLTG) (DLTG) (DLTU) (DLTU) (PIU) (PIU) (DLTU)
                 (DLTU) (PIG) (PIG) (DLTG) (DLTG) (SGU) (SGG) (PIU)
                 (PIU) (SGG) (PIG) (PIG) (SGU) (SGG) (SGU) (SGG)
 Keep R1 ints in memory in symmetry-blocked form, NReq=107461339.
 Requested convergence on RMS density matrix=1.00D-08 within 128 cycles.
 Requested convergence on MAX density matrix=1.00D-06.
 Requested convergence on             energy=1.00D-06.
 No special actions if energy rises.
 An orbital has undefined symmetry, so N**3 symmetry is turned off.
 SCF Done:  E(RB3LYP) =  -188.676620667     A.U. after    1 cycles
            NFock=  1  Conv=0.28D-09     -V/T= 2.0039
 DoSCS=F DFT=T ScalE2(SS,OS)=  1.000000  1.000000
 Range of M.O.s used for correlation:     1   165
 NBasis=   165 NAE=    11 NBE=    11 NFC=     0 NFV=     0
 NROrb=    165 NOA=    11 NOB=    11 NVA=   154 NVB=   154

 **** Warning!!: The largest alpha MO coefficient is  0.25746800D+02

 Symmetrizing basis deriv contribution to polar:
 IMax=3 JMax=2 DiffMx= 0.00D+00
 G2DrvN: will do     4 centers at a time, making    1 passes.
 Calling FoFCou, ICntrl=  3107 FMM=F I1Cent=   0 AccDes= 0.00D+00.
 End of G2Drv F.D. properties file   721 does not exist.
 End of G2Drv F.D. properties file   722 does not exist.
 End of G2Drv F.D. properties file   788 does not exist.
          IDoAtm=111
          Differentiating once with respect to electric field.
                with respect to dipole field.
          Differentiating once with respect to nuclear coordinates.
 Keep R1 ints in memory in symmetry-blocked form, NReq=107461999.
          There are     9 degrees of freedom in the 1st order CPHF.  IDoFFX=4 NUNeed=     9.
      9 vectors produced by pass  0 Test12= 1.88D-14 1.11D-08 XBig12= 2.53D+01 3.30D+00.
 AX will form     9 AO Fock derivatives at one time.
      9 vectors produced by pass  1 Test12= 1.88D-14 1.11D-08 XBig12= 1.28D+01 1.73D+00.
      9 vectors produced by pass  2 Test12= 1.88D-14 1.11D-08 XBig12= 6.77D-02 7.29D-02.
      9 vectors produced by pass  3 Test12= 1.88D-14 1.11D-08 XBig12= 3.31D-04 7.05D-03.
      9 vectors produced by pass  4 Test12= 1.88D-14 1.11D-08 XBig12= 1.12D-06 2.95D-04.
      7 vectors produced by pass  5 Test12= 1.88D-14 1.11D-08 XBig12= 7.09D-09 2.64D-05.
      7 vectors produced by pass  6 Test12= 1.88D-14 1.11D-08 XBig12= 1.14D-10 3.88D-06.
      1 vectors produced by pass  7 Test12= 1.88D-14 1.11D-08 XBig12= 3.44D-13 2.07D-07.
      1 vectors produced by pass  8 Test12= 1.88D-14 1.11D-08 XBig12= 1.56D-15 1.23D-08.
 InvSVY:  IOpt=1 It=  1 EMax= 4.44D-16
 Solved reduced A of dimension    61 with     9 vectors.
 Isotropic polarizability for W=    0.000000       15.73 Bohr**3.
 End of Minotr F.D. properties file   721 does not exist.
 End of Minotr F.D. properties file   722 does not exist.
 End of Minotr F.D. properties file   788 does not exist.

 **********************************************************************

            Population analysis using the SCF Density.

 **********************************************************************

 Orbital symmetries:
       Occupied  (SGU) (SGG) (SGG) (SGG) (SGU) (SGG) (SGU) (PIU)
                 (PIU) (PIG) (PIG)
       Virtual   (SGG) (PIU) (PIU) (SGU) (PIU) (PIU) (SGG) (SGG)
                 (PIG) (PIG) (SGU) (DLTG) (DLTG) (PIU) (PIU) (SGG)
                 (PIG) (PIG) (SGU) (SGU) (DLTU) (DLTU) (SGG) (PIU)
                 (PIU) (SGU) (DLTG) (DLTG) (SGG) (PIG) (PIG) (PIU)
                 (PIU) (PHIU) (PHIU) (SGU) (DLTG) (DLTG) (PIG)
                 (PIG) (DLTU) (DLTU) (SGG) (PIU) (PIU) (SGU) (PIG)
                 (PIG) (SGG) (PIU) (PIU) (SGG) (PHIG) (PHIG) (PHIU)
                 (PHIU) (DLTG) (DLTG) (SGU) (SGG) (DLTU) (DLTU)
                 (PIG) (PIG) (DLTG) (DLTG) (SGU) (PIU) (PIU) (SGU)
                 (DLTU) (DLTU) (PIU) (PIU) (SGG) (?A) (?A) (PIG)
                 (PIG) (PHIG) (PHIG) (SGU) (SGG) (DLTG) (DLTG)
                 (PIG) (PIG) (PIU) (PIU) (PHIU) (PHIU) (DLTU) (DLTU)
                 (DLTG) (DLTG) (SGG) (SGU) (PIU) (PIU) (PIG) (PIG)
                 (SGG) (SGU) (?B) (?B) (?A) (?A) (PHIU) (PHIU)
                 (PHIG) (PHIG) (DLTU) (DLTU) (PIU) (PIU) (SGU)
                 (PIG) (PIG) (PIG) (PIG) (DLTG) (DLTG) (SGG) (PIU)
                 (PIU) (PHIG) (PHIG) (PHIU) (PHIU) (SGU) (SGG)
                 (DLTG) (DLTG) (DLTU) (DLTU) (PIU) (PIU) (DLTU)
                 (DLTU) (PIG) (PIG) (DLTG) (DLTG) (SGU) (SGG) (PIU)
                 (PIU) (SGG) (PIG) (PIG) (SGU) (SGG) (SGU) (SGG)
 The electronic state is 1-SGG.
 Alpha  occ. eigenvalues --  -19.21083 -19.21083 -10.36487  -1.17144  -1.13182
 Alpha  occ. eigenvalues --   -0.57233  -0.53059  -0.52755  -0.52755  -0.38321
 Alpha  occ. eigenvalues --   -0.38321
 Alpha virt. eigenvalues --    0.01370   0.02415   0.02415   0.16151   0.17731
 Alpha virt. eigenvalues --    0.17731   0.26564   0.32989   0.37330   0.37330
 Alpha virt. eigenvalues --    0.38388   0.41076   0.41076   0.56608   0.56608
 Alpha virt. eigenvalues --    0.74732   0.81604   0.81604   0.86899   0.91534
 Alpha virt. eigenvalues --    0.97366   0.97366   1.07744   1.14248   1.14248
 Alpha virt. eigenvalues --    1.21201   1.24109   1.24109   1.27242   1.40294
 Alpha virt. eigenvalues --    1.40294   1.45958   1.45958   1.60197   1.60197
 Alpha virt. eigenvalues --    1.69820   1.72401   1.72401   2.03588   2.03588
 Alpha virt. eigenvalues --    2.04900   2.04900   2.17509   2.28503   2.28503
 Alpha virt. eigenvalues --    2.66859   2.82588   2.82588   2.83764   2.89193
 Alpha virt. eigenvalues --    2.89193   2.94993   2.99555   2.99555   3.21624
 Alpha virt. eigenvalues --    3.21624   3.40437   3.40437   3.52799   3.61448
 Alpha virt. eigenvalues --    3.64978   3.64978   3.75579   3.75579   3.81455
 Alpha virt. eigenvalues --    3.81455   3.86630   3.88158   3.88158   3.92651
 Alpha virt. eigenvalues --    4.21692   4.21692   4.38342   4.38342   4.42222
 Alpha virt. eigenvalues --    4.69479   4.69479   4.85664   4.85664   4.96307
 Alpha virt. eigenvalues --    4.96307   5.16069   5.24077   5.63862   5.63862
 Alpha virt. eigenvalues --    5.70864   5.70864   5.71486   5.71486   5.76908
 Alpha virt. eigenvalues --    5.76908   5.81075   5.81075   6.30684   6.30684
 Alpha virt. eigenvalues --    6.38209   6.52629   6.97012   6.97012   8.03258
 Alpha virt. eigenvalues --    8.03258   8.14837   8.67518   8.78465   8.78465
 Alpha virt. eigenvalues --    8.80993   8.80993   8.83702   8.83702   9.26185
 Alpha virt. eigenvalues --    9.26185   9.56227   9.56227   9.96385   9.96385
 Alpha virt. eigenvalues --    9.97742  10.08499  10.08499  10.13251  10.13251
 Alpha virt. eigenvalues --   10.55189  10.55189  10.60219  10.86373  10.86373
 Alpha virt. eigenvalues --   10.88786  10.88786  10.90655  10.90655  10.93700
 Alpha virt. eigenvalues --   10.96129  11.12331  11.12331  11.47710  11.47711
 Alpha virt. eigenvalues --   11.62958  11.62958  11.85204  11.85204  12.09100
 Alpha virt. eigenvalues --   12.09100  12.29871  12.29871  12.52609  12.70248
 Alpha virt. eigenvalues --   13.38128  13.38128  13.82248  14.90676  14.90676
 Alpha virt. eigenvalues --   15.75777  24.62476  40.94898  42.24999
          Condensed to atoms (all electrons):
               1          2          3
     1  C    3.888710   0.766191   0.766191
     2  O    0.766191   7.582630  -0.059367
     3  O    0.766191  -0.059367   7.582630
 Mulliken charges:
               1
     1  C    0.578908
     2  O   -0.289454
     3  O   -0.289454
 Sum of Mulliken charges =  -0.00000
 Mulliken charges with hydrogens summed into heavy atoms:
               1
     1  C    0.578908
     2  O   -0.289454
     3  O   -0.289454
 APT charges:
               1
     1  C    1.158040
     2  O   -0.579020
     3  O   -0.579020
 Sum of APT charges =   0.00000
 APT charges with hydrogens summed into heavy atoms:
               1
     1  C    1.158040
     2  O   -0.579020
     3  O   -0.579020
 Electronic spatial extent (au):  <R**2>=            113.0251
 Charge=             -0.0000 electrons
 Dipole moment (field-independent basis, Debye):
    X=              0.0000    Y=             -0.0000    Z=              0.0000  Tot=              0.0000
 Quadrupole moment (field-independent basis, Debye-Ang):
   XX=            -14.7893   YY=            -14.7893   ZZ=            -19.2599
   XY=              0.0000   XZ=             -0.0000   YZ=             -0.0000
 Traceless Quadrupole moment (field-independent basis, Debye-Ang):
   XX=              1.4902   YY=              1.4902   ZZ=             -2.9804
   XY=              0.0000   XZ=             -0.0000   YZ=             -0.0000
 Octapole moment (field-independent basis, Debye-Ang**2):
  XXX=              0.0000  YYY=             -0.0000  ZZZ=              0.0000  XYY=              0.0000
  XXY=             -0.0000  XXZ=              0.0000  XZZ=              0.0000  YZZ=             -0.0000
  YYZ=              0.0000  XYZ=              0.0000
 Hexadecapole moment (field-independent basis, Debye-Ang**3):
 XXXX=            -11.7538 YYYY=            -11.7538 ZZZZ=           -102.6316 XXXY=              0.0000
 XXXZ=             -0.0000 YYYX=              0.0000 YYYZ=             -0.0000 ZZZX=             -0.0000
 ZZZY=             -0.0000 XXYY=             -3.9179 XXZZ=            -18.7507 YYZZ=            -18.7507
 XXYZ=             -0.0000 YYXZ=             -0.0000 ZZXY=              0.0000
 N-N= 5.845616568256D+01 E-N=-5.610590752129D+02  KE= 1.879396860922D+02
 Symmetry AG   KE= 1.012537991973D+02
 Symmetry B1G  KE= 2.746355542050D-29
 Symmetry B2G  KE= 4.960115884004D+00
 Symmetry B3G  KE= 4.960115884004D+00
 Symmetry AU   KE= 3.971672995561D-29
 Symmetry B1U  KE= 6.938027749229D+01
 Symmetry B2U  KE= 3.692688817289D+00
 Symmetry B3U  KE= 3.692688817289D+00
  Exact polarizability:  11.231  -0.000  11.231   0.000   0.000  24.733
 Approx polarizability:  14.771  -0.000  14.771  -0.000  -0.000  46.096
 Calling FoFJK, ICntrl=    100127 FMM=F ISym2X=1 I1Cent= 0 IOpClX= 0 NMat=1 NMatS=1 NMatT=0.
 Full mass-weighted force constant matrix:
 Low frequencies ---   -9.7897   -9.7897   -0.0010   -0.0008   -0.0007  674.7774
 Low frequencies ---  674.7774 1372.1638 2408.9314
 Diagonal vibrational polarizability:
        1.8570127       1.8570127       3.0176877
 Harmonic frequencies (cm**-1), IR intensities (KM/Mole), Raman scattering
 activities (A**4/AMU), depolarization ratios for plane and unpolarized
 incident light, reduced masses (AMU), force constants (mDyne/A),
 and normal coordinates:
                      1                      2                      3
                     PIU                    PIU                    SGG
 Frequencies --    674.7774               674.7774              1372.1638
 Red. masses --     12.8774                12.8774                15.9949
 Frc consts  --      3.4546                 3.4546                17.7437
 IR Inten    --     31.4198                31.4198                 0.0000
  Atom  AN      X      Y      Z        X      Y      Z        X      Y      Z
     1   6     0.88  -0.01   0.00     0.01   0.88  -0.00    -0.00  -0.00   0.00
     2   8    -0.33   0.00   0.00    -0.00  -0.33   0.00     0.00   0.00   0.71
     3   8    -0.33   0.00  -0.00    -0.00  -0.33  -0.00     0.00   0.00  -0.71
                      4
                     SGU
 Frequencies --   2408.9314
 Red. masses --     12.8774
 Frc consts  --     44.0277
 IR Inten    --    650.7138
  Atom  AN      X      Y      Z
     1   6    -0.00   0.00   0.88
     2   8     0.00  -0.00  -0.33
     3   8     0.00  -0.00  -0.33

 -------------------
 - Thermochemistry -
 -------------------
 Temperature   298.150 Kelvin.  Pressure   1.00000 Atm.
 Atom     1 has atomic number  6 and mass  12.00000
 Atom     2 has atomic number  8 and mass  15.99491
 Atom     3 has atomic number  8 and mass  15.99491
 Molecular mass:    43.98983 amu.
 Principal axes and moments of inertia in atomic units:
                           1         2         3
     Eigenvalues --     0.00000 153.38088 153.38088
           X            0.00000   0.92431   0.38163
           Y            0.00000  -0.38163   0.92431
           Z            1.00000  -0.00000  -0.00000
 This molecule is a prolate symmetric top.
 Rotational symmetry number  2.
 Rotational temperature (Kelvin)      0.56470
 Rotational constant (GHZ):          11.766403
 Zero-point vibrational energy      30688.1 (Joules/Mol)
                                    7.33463 (Kcal/Mol)
 Vibrational temperatures:    970.85   970.85  1974.24  3465.91
          (Kelvin)
 
 Zero-point correction=                           0.011688 (Hartree/Particle)
 Thermal correction to Energy=                    0.014304
 Thermal correction to Enthalpy=                  0.015248
 Thermal correction to Gibbs Free Energy=        -0.008999
 Sum of electronic and zero-point Energies=           -188.664932
 Sum of electronic and thermal Energies=              -188.662317
 Sum of electronic and thermal Enthalpies=            -188.661373
 Sum of electronic and thermal Free Energies=         -188.685620
 
                     E (Thermal)             CV                S
                      KCal/Mol        Cal/Mol-Kelvin    Cal/Mol-Kelvin
 Total                    8.976              6.843             51.033
 Electronic               0.000              0.000              0.000
 Translational            0.889              2.981             37.270
 Rotational               0.592              1.987             13.068
 Vibrational              7.495              1.875              0.695
                       Q            Log10(Q)             Ln(Q)
 Total Bot       0.137867D+05          4.139460          9.531460
 Total V=0       0.327932D+10          9.515784         21.910901
 Vib (Bot)       0.455397D-05         -5.341610        -12.299512
 Vib (V=0)       0.108321D+01          0.034713          0.079930
 Electronic      0.100000D+01          0.000000          0.000000
 Translational   0.114679D+08          7.059482         16.255059
 Rotational      0.263991D+03          2.421588          5.575913
 ***** Axes restored to original set *****
 -------------------------------------------------------------------
 Center     Atomic                   Forces (Hartrees/Bohr)
 Number     Number              X              Y              Z
 -------------------------------------------------------------------
      1        6           0.000000000   -0.000000000    0.000000000
      2        8           0.000105835   -0.000064044    0.000000000
      3        8          -0.000105835    0.000064044   -0.000000000
 -------------------------------------------------------------------
 Cartesian Forces:  Max     0.000105835 RMS     0.000058315
 FormGI is forming the generalized inverse of G from B-inverse, IUseBI=4.

 GradGradGradGradGradGradGradGradGradGradGradGradGradGradGradGradGradGrad
 Berny optimization.
 Internal  Forces:  Max     0.000123704 RMS     0.000087472
 Search for a local minimum.
 Step number   1 out of a maximum of    2
 All quantities printed in internal units (Hartrees-Bohrs-Radians)
 Second derivative matrix not updated -- analytic derivatives used.
 The second derivative matrix:
                          R1        R2        A1        A2
           R1           1.04894
           R2           0.09075   1.04894
           A1           0.00000   0.00000   0.18038
           A2          -0.00000   0.00000  -0.00000   0.13203
 ITU=  0
     Eigenvalues ---    0.13203   0.18038   0.95819   1.13969
 Angle between quadratic step and forces=   0.00 degrees.
 Linear search not attempted -- first point.
 Iteration  1 RMS(Cart)=  0.00007675 RMS(Int)=  0.00000000
 Iteration  2 RMS(Cart)=  0.00000000 RMS(Int)=  0.00000000
 ClnCor:  largest displacement from symmetrization is 2.27D-13 for atom     1.
 Variable       Old X    -DE/DX   Delta X   Delta X   Delta X     New X
                                 (Linear)    (Quad)   (Total)
    R1        2.18967   0.00012   0.00000   0.00011   0.00011   2.18978
    R2        2.18967   0.00012   0.00000   0.00011   0.00011   2.18978
    A1        3.14159  -0.00000   0.00000  -0.00000  -0.00000   3.14159
    A2        3.14159   0.00000   0.00000   0.00000   0.00000   3.14159
         Item               Value     Threshold  Converged?
 Maximum Force            0.000124     0.000450     YES
 RMS     Force            0.000087     0.000300     YES
 Maximum Displacement     0.000093     0.001800     YES
 RMS     Displacement     0.000077     0.001200     YES
 Predicted change in Energy=-1.342709D-08
 Optimization completed.
    -- Stationary point found.
                           ----------------------------
                           !   Optimized Parameters   !
                           ! (Angstroms and Degrees)  !
 --------------------------                            --------------------------
 ! Name  Definition              Value          Derivative Info.                !
 --------------------------------------------------------------------------------
 ! R1    R(1,2)                  1.1587         -DE/DX =    0.0001              !
 ! R2    R(1,3)                  1.1587         -DE/DX =    0.0001              !
 ! A1    L(2,1,3,-3,-1)        180.0            -DE/DX =    0.0                 !
 ! A2    L(2,1,3,-2,-2)        180.0            -DE/DX =    0.0                 !
 --------------------------------------------------------------------------------
 GradGradGradGradGradGradGradGradGradGradGradGradGradGradGradGradGradGrad

 Dipole is zero, so no output in dipole orientation.

 ----------------------------------------------------------------------

 Electric dipole moment (input orientation):
 (Debye = 10**-18 statcoulomb cm , SI units = C m)
                  (au)            (Debye)         (10**-30 SI)
   Tot        0.000000D+00      0.000000D+00      0.000000D+00
   x          0.000000D+00      0.000000D+00      0.000000D+00
   y          0.000000D+00      0.000000D+00      0.000000D+00
   z          0.000000D+00      0.000000D+00      0.000000D+00

 Dipole polarizability, Alpha (input orientation).
 (esu units = cm**3 , SI units = C**2 m**2 J**-1)
 Alpha(0;0):
               (au)            (10**-24 esu)      (10**-40 SI)
   iso        0.157313D+02      0.233114D+01      0.259375D+01
   aniso      0.135019D+02      0.200077D+01      0.222616D+01
   xx         0.211136D+02      0.312871D+01      0.348116D+01
   yx        -0.598048D+01     -0.886216D+00     -0.986048D+00
   yy         0.148497D+02      0.220050D+01      0.244839D+01
   zx         0.000000D+00      0.000000D+00      0.000000D+00
   zy         0.000000D+00      0.000000D+00      0.000000D+00
   zz         0.112307D+02      0.166422D+01      0.185169D+01

 ----------------------------------------------------------------------
 1\1\GINC-SUBZERO\Freq\RB3LYP\CC-pVQZ\C1O2\TURKI\08-Apr-2021\0\\#N Geom
 =AllCheck Guess=TCheck SCRF=Check GenChk RB3LYP/CC-pVQZ Freq\\Title Ca
 rd Required\\0,1\C,-3.3728227973,0.7802597664,0.\O,-2.3814770168,0.180
 3600718,0.\O,-4.3641685778,1.380159461,0.\\Version=ES64L-G16RevB.01\St
 ate=1-SGG\HF=-188.6766207\RMSD=2.774e-10\RMSF=5.831e-05\ZeroPoint=0.01
 16885\Thermal=0.0143038\Dipole=0.,0.,0.\DipoleDeriv=1.9087092,-0.83410
 78,0.,-0.8341078,1.0350793,0.,0.,0.,0.53033,-0.9543546,0.4170539,0.,0.
 4170539,-0.5175396,0.,0.,0.,-0.265165,-0.9543546,0.4170539,0.,0.417053
 9,-0.5175396,0.,0.,0.,-0.265165\Polar=21.1135653,-5.9804798,14.8497151
 ,0.,0.,11.2307074\Quadrupole=-1.3249687,0.2170308,1.1079379,1.472241,0
 .,0.\PG=D*H [O(C1),C*(O1.O1)]\NImag=0\\1.44302079,-0.78223204,0.623724
 60,0.,0.,0.15036730,-0.72151039,0.39111602,0.,0.77785113,0.39111602,-0
 .31186230,0.,-0.44797561,0.30864929,0.,0.,-0.07518365,0.,0.,0.03756282
 ,-0.72151039,0.39111602,0.,-0.05634073,0.05685959,0.,0.77785113,0.3911
 1602,-0.31186230,0.,0.05685959,0.00321301,0.,-0.44797561,0.30864929,0.
 ,0.,-0.07518365,0.,0.,0.03762083,0.,0.,0.03756282\\0.,0.,0.,-0.0001058
 3,0.00006404,0.,0.00010583,-0.00006404,0.\\\@


 AN OPTIMIST IS A GUY
 THAT HAS NEVER HAD
 MUCH EXPERIENCE
   (CERTAIN MAXIMS OF ARCHY  -- DON MARQUIS)
 Job cpu time:       0 days  0 hours  4 minutes  9.9 seconds.
 Elapsed time:       0 days  0 hours  0 minutes 21.3 seconds.
 File lengths (MBytes):  RWF=     19 Int=      0 D2E=      0 Chk=      3 Scr=      1
 Normal termination of Gaussian 16 at Thu Apr  8 15:47:35 2021.
